{"cas_no": "88430-50-6", "cn_name": "\u8d1d\u524d\u5217\u7d20", "en_name": ["Beraprost", "1H-Cyclopenta[b]benzofuran-5-butanoic acid, 2,3,3a,8b-tetrahydro-2-hydroxy-1-(3-hydroxy-4-methyl-1-octen-6-yn-1-yl)-", "1H-Cyclopenta[b]benzofuran-5-butanoic acid, 2,3,3a,8b-tetrahydro-2-hydroxy-1-(3-hydroxy-4-methyl-1-octen-6-ynyl)-", "2,3,3a,8b-Tetrahydro-2-hydroxy-1-(3-hydroxy-4-methyl-1-octen-6-yn-1-yl)-1H-cyclopenta[b]benzofuran-5-butanoic acid", "Beraprost", "ML 1229", "MDL 201229"], "SMILES": "C(=CC(C(CC#CC)C)O)C1C2C=3C(OC2CC1O)=C(CCCC(O)=O)C=CC3", "physical_data": {"Molecular Weight": "398.49", "Molecular Formula": "C24H30O5", "Melting Point": "57-60 \u00b0C"}}