{"cas_no": "884507-19-1", "cn_name": "1-\u7532\u57fa- 6 -(4,4,5,5 -\u56db\u7532\u57fa-1,3,2 - \u4e8c\u6c27\u787c\u620a\u73af-2-\u57fa)-1H -\u5432\u54da", "en_name": ["1-Methyl-6-(4,4,5,5-tetramethyl-1,3,2-dioxaborolan-2-yl)-1H-indole", "1H-Indole, 1-methyl-6-(4,4,5,5-tetramethyl-1,3,2-dioxaborolan-2-yl)-", "1-Methyl-6-(4,4,5,5-tetramethyl-1,3,2-dioxaborolan-2-yl)-1H-indole", "1-Methyl-6-(4,4,5,5-tetramethyl-1,3,2-dioxaborolan-2-yl)indole"], "SMILES": "CC1(C)OB(C=2C=C3C(=CC2)C=CN3C)OC1(C)C", "physical_data": {"Molecular Weight": "257.14", "Molecular Formula": "C15H20BNO2", "Melting Point": "98 \u00b0C"}}