{"cas_no": "88485-37-4", "cn_name": "\u6c1f\u8349\u809f", "en_name": ["Fluxofenim", "Ethanone, 1-(4-chlorophenyl)-2,2,2-trifluoro-, O-(1,3-dioxolan-2-ylmethyl)oxime", "CGA 133205", "Fluxofenim", "Concep III", "SorPro", "SorPro 940 ES"], "SMILES": "C(=NOCC1OCCO1)(C(F)(F)F)C2=CC=C(Cl)C=C2", "physical_data": {"Molecular Weight": "309.67", "Molecular Formula": "C12H11ClF3NO3", "Boiling Point": "94 \u00b0C", "Melting Point": "&lt;25 \u00b0C"}}