{"cas_no": "884855-68-9", "cn_name": "4-\u6eb4-1-\u7532\u57fa\u5432\u54da\u5549-2-\u916e", "en_name": ["4-Bromo-1,3-dihydro-1-methyl-2H-indol-2-one", "2H-Indol-2-one, 4-bromo-1,3-dihydro-1-methyl-", "4-Bromo-1,3-dihydro-1-methyl-2H-indol-2-one", "4-Bromo-1-methyl-1,3-dihydro-2-oxindole", "4-Bromo-1-methylindolin-2-one"], "SMILES": "CN1C=2C(=C(Br)C=CC2)CC1=O", "physical_data": {"Molecular Weight": "226.07", "Molecular Formula": "C9H8BrNO", "Melting Point": "135-136 \u00b0C"}}