{"cas_no": "88495-63-0", "cn_name": "\u9752\u84bf\u7425\u916f", "en_name": ["Artesunate", "Butanedioic acid, 1-[(3R,5aS,6R,8aS,9R,10S,12R,12aR)-decahydro-3,6,9-trimethyl-3,12-epoxy-12H-pyrano[4,3-j]-1,2-benzodioxepin-10-yl] ester", "Butanedioic acid, mono(decahydro-3,6,9-trimethyl-3,12-epoxy-12H-pyrano[4,3-j]-1,2-benzodioxepin-10-yl) ester, [3R-(3\u03b1,5a\u03b2,6\u03b2,8a\u03b2,9\u03b1,10\u03b2,12\u03b2,12aR*)]-", "Butanedioic acid, mono[(3R,5aS,6R,8aS,9R,10S,12R,12aR)-decahydro-3,6,9-trimethyl-3,12-epoxy-12H-pyrano[4,3-j]-1,2-benzodioxepin-10-yl] ester", "3,12-Epoxy-12H-pyrano[4,3-j]-1,2-benzodioxepin, butanedioic acid deriv.", "Artesunic acid", "Artesunate", "Qinghaozhi", "WR 256283", "Arsumax", "Dihydroqinghasu hemsuccinate", "Plasmotrin", "Artesunata", "Cosunate", "Gsunate Forte", "Zysunate", "Arinate", "Saphnate", "Armax 200", "Plasmotrim", "Asumax", "Arsuamoon", "\u03b1-Artesunic acid", "Artecan", "NSC 712571", "HC 101B"], "SMILES": "CC1C2C34C(OC1OC(CCC(O)=O)=O)OC(C)(OO3)CCC4C(C)CC2", "physical_data": {"Molecular Weight": "384.42", "Molecular Formula": "C19H28O8", "Melting Point": "140-142 \u00b0C"}}