{"cas_no": "885-70-1", "cn_name": "5,11-\u4e8c\u6c22-6H-\u5421\u5576\u5e76[2,3-B][1,4]\u82ef\u5e76\u4e8c\u6c2e\u6742-6-\u916e", "en_name": ["5,11-Dihydro-6H-pyrido[2,3-b][1,4]benzodiazepin-6-one", "6H-Pyrido[2,3-b][1,4]benzodiazepin-6-one, 5,11-dihydro-", "6H-Pyrido[2,3-b][1,4]benzodiazepin-6-one, 1,5-dihydro-", "5,11-Dihydro-6H-pyrido[2,3-b][1,4]benzodiazepin-6-one", "LS 75"], "SMILES": "O=C1C=2C(NC=3C(N1)=CC=CN3)=CC=CC2", "physical_data": {"Molecular Weight": "211.22", "Molecular Formula": "C12H9N3O", "Melting Point": "283-285 \u00b0C"}}