{"cas_no": "885-82-5", "cn_name": "2-\u785d\u57fa-4-\u82ef\u57fa\u82ef\u915a", "en_name": ["4-Phenyl-2-nitrophenol", "[1,1\u2032-Biphenyl]-4-ol, 3-nitro-", "4-Biphenylol, 3-nitro-", "Phenol, 2-nitro-4-phenyl-", "3-Nitro[1,1\u2032-biphenyl]-4-ol", "2-Nitro-p-phenylphenol", "2-Nitro-4-phenylphenol", "3-Nitro-4-biphenylol", "4-Hydroxy-3-nitrobiphenyl", "4-Phenyl-2-nitrophenol", "3-Nitro-4-hydroxybiphenyl", "NSC 95810"], "SMILES": "N(=O)(=O)C=1C=C(C=CC1O)C2=CC=CC=C2", "physical_data": {"Molecular Weight": "215.20", "Molecular Formula": "C12H9NO3", "Melting Point": "66 \u00b0C"}}