{"cas_no": "88511-27-7", "cn_name": "4-\u6c28\u57fa-3-\u7898\u5421\u5576", "en_name": ["3-Iodo-4-pyridinamine", "4-Pyridinamine, 3-iodo-", "Pyridine, 4-amino-3-iodo-", "3-Iodo-4-pyridinamine", "4-Amino-3-iodopyridine", "3-Iodo-4-aminopyridine", "3-Iodopyridin-4-amine", "3-Iodopyridin-4-ylamine"], "SMILES": "IC=1C(N)=CC=NC1", "physical_data": {"Molecular Weight": "220.01", "Molecular Formula": "C5H5IN2", "Melting Point": "100 \u00b0C"}}