{"cas_no": "88515-58-6", "cn_name": "\u91ce\u8537\u8587\u82f7", "en_name": ["Rosamultin", "Urs-12-en-28-oic acid, 2,3,19-trihydroxy-, \u03b2-D-glucopyranosyl ester, (2\u03b1,3\u03b2)-", "(+)-Rosamultin", "Rosamultin", "2\u03b1,3\u03b2,19\u03b1-Trihydroxylurs-12-en-28-oic acid-28-O-\u03b2-D-glucopyranoside", "28-Glucosyltormentate", "Tormentic acid 28-O-glucosyl ester", "Kajichgoside f1", "Glucosyl tormentate", "Ursolazuroside 1"], "SMILES": "C(OC1OC(CO)C(O)C(O)C1O)(=O)C23C(C=4C(C)(CC2)C5(C)C(CC4)C6(C)C(CC5)C(C)(C)C(O)C(O)C6)C(C)(O)C(C)CC3", "physical_data": {"Molecular Weight": "650.84", "Molecular Formula": "C36H58O10", "Melting Point": "214-216 \u00b0C"}}