{"cas_no": "88511-38-0", "cn_name": "1-(5-\u5f02\u6076\u5511\u57fa)\u4e59\u916e", "en_name": ["1-(5-Isoxazolyl)ethanone", "Ethanone, 1-(5-isoxazolyl)-", "Ketone, 5-isoxazolyl methyl", "1-(5-Isoxazolyl)ethanone", "1-(1,2-Oxazol-5-yl)ethanone", "1-(1,2-Oxazol-5-yl)ethan-1-one"], "SMILES": "C(C)(=O)C1=CC=NO1", "physical_data": {"Molecular Weight": "111.10", "Molecular Formula": "C5H5NO2", "Melting Point": "52.5-53 \u00b0C"}}