{"cas_no": "885126-35-2", "cn_name": "N-\u7532\u57fa-2-[[3-[(1E)-2-(2-\u5421\u5576\u57fa)\u4e59\u70ef\u57fa]-1-(\u56db\u6c22-2H-\u5421\u5583-2-\u57fa)-1H-\u5432\u5511-6-\u57fa]\u786b\u57fa]\u82ef\u7532\u9170\u80fa", "en_name": ["N-Methyl-2-[[3-[(1E)-2-(2-pyridinyl)ethenyl]-1-(tetrahydro-2H-pyran-2-yl)-1H-indazol-6-yl]thio]benzamide", "Benzamide, N-methyl-2-[[3-[(1E)-2-(2-pyridinyl)ethenyl]-1-(tetrahydro-2H-pyran-2-yl)-1H-indazol-6-yl]thio]-", "N-Methyl-2-[[3-[(1E)-2-(2-pyridinyl)ethenyl]-1-(tetrahydro-2H-pyran-2-yl)-1H-indazol-6-yl]thio]benzamide"], "SMILES": "C(=CC1=CC=CC=N1)C=2C=3C(N(N2)C4CCCCO4)=CC(SC5=C(C(NC)=O)C=CC=C5)=CC3", "physical_data": {"Molecular Weight": "470.59", "Molecular Formula": "C27H26N4O2S", "Melting Point": "240 \u00b0C"}}