{"cas_no": "885275-14-9", "cn_name": "3-\u53d4\u4e01\u6c27\u7fb0\u57fa\u6c28\u57fa-4-\u6eb4\u5421\u5576", "en_name": ["1,1-Dimethylethyl N-(4-bromo-3-pyridinyl)carbamate", "Carbamic acid, N-(4-bromo-3-pyridinyl)-, 1,1-dimethylethyl ester", "Carbamic acid, (4-bromo-3-pyridinyl)-, 1,1-dimethylethyl ester", "1,1-Dimethylethyl N-(4-bromo-3-pyridinyl)carbamate", "(4-Bromo-pyridin-3-yl)-carbamic acid tert-butyl ester"], "SMILES": "N(C(OC(C)(C)C)=O)C=1C(Br)=CC=NC1", "physical_data": {"Molecular Weight": "273.13", "Molecular Formula": "C10H13BrN2O2", "Melting Point": "108-109 \u00b0C"}}