{"cas_no": "885272-25-3", "cn_name": "(5-\u7532\u6c27\u57fa-2-\u6c27\u4ee3-2,3-\u4e8c\u6c22-1H-\u5432\u54da-3-\u57fa)\u4e59\u9178", "en_name": ["2,3-Dihydro-5-methoxy-2-oxo-1H-indole-3-acetic acid", "1H-Indole-3-acetic acid, 2,3-dihydro-5-methoxy-2-oxo-", "2,3-Dihydro-5-methoxy-2-oxo-1H-indole-3-acetic acid", "2-(5-Methoxy-2-oxoindolin-3-yl)acetic acid", "(5-Methoxy-2-oxo-2,3-dihydro-1H-indol-3-yl)-acetic acid", "2-(5-Methoxy-2-oxo-2,3-dihydro-1H-indol-3-yl)acetic acid", "2-(5-Methoxy-2-oxo-1,3-dihydroindol-3-yl)acetic acid"], "SMILES": "C(C(O)=O)C1C=2C(NC1=O)=CC=C(OC)C2", "physical_data": {"Molecular Weight": "221.21", "Molecular Formula": "C11H11NO4", "Melting Point": "193-194 \u00b0C"}}