{"cas_no": "885521-34-6", "cn_name": "3-\u6eb4-6-\u6c2f-1H-\u5432\u5511", "en_name": ["3-Bromo-6-chloro-1H-indazole", "1H-Indazole, 3-bromo-6-chloro-", "3-Bromo-6-chloro-1H-indazole", "3-Bromo-6-chloro-2H-indazole"], "SMILES": "BrC=1C=2C(NN1)=CC(Cl)=CC2", "physical_data": {"Molecular Weight": "231.48", "Molecular Formula": "C7H4BrClN2", "Melting Point": "193 \u00b0C"}}