{"cas_no": "885520-31-0", "cn_name": "4-\u6c1f\u5432\u54da-6-\u7fa7\u9178", "en_name": ["4-Fluoro-1H-indole-6-carboxylic acid", "1H-Indole-6-carboxylic acid, 4-fluoro-", "4-Fluoro-1H-indole-6-carboxylic acid"], "SMILES": "FC1=C2C(=CC(C(O)=O)=C1)NC=C2", "physical_data": {"Molecular Weight": "179.15", "Molecular Formula": "C9H6FNO2", "Melting Point": "215-217 \u00b0C"}}