{"cas_no": "885521-40-4", "cn_name": "3-\u6eb4-4-\u6c2f\u5432\u5511", "en_name": ["3-Bromo-4-chloro-1H-indazole", "1H-Indazole, 3-bromo-4-chloro-", "3-Bromo-4-chloro-1H-indazole", "3-Bromo-4-chloro-2H-indazole"], "SMILES": "ClC1=C2C(=CC=C1)NN=C2Br", "physical_data": {"Molecular Weight": "231.48", "Molecular Formula": "C7H4BrClN2", "Melting Point": "236 \u00b0C"}}