{"cas_no": "885681-96-9", "cn_name": "2-\u7898-4-\u6eb4-\u82c4\u6eb4", "en_name": ["4-Bromo-1-(bromomethyl)-2-iodobenzene", "Benzene, 4-bromo-1-(bromomethyl)-2-iodo-", "4-Bromo-1-(bromomethyl)-2-iodobenzene", "4-Bromo-2-iodobenzyl bromide", "4-Bromo-1-bromomethyl-2-iodobenzene"], "SMILES": "C(Br)C1=C(I)C=C(Br)C=C1", "physical_data": {"Molecular Weight": "375.83", "Molecular Formula": "C7H5Br2I", "Melting Point": "91-92 \u00b0C"}}