{"cas_no": "886-65-7", "cn_name": "1,4-\u4e8c\u82ef\u57fa1,3-\u4e01\u4e8c\u70ef", "en_name": ["1,4-Diphenyl-1,3-butadiene", "Benzene, 1,1\u2032-(1,3-butadiene-1,4-diyl)bis-", "1,3-Butadiene, 1,4-diphenyl-", "1,1\u2032-(1,3-Butadiene-1,4-diyl)bis[benzene]", "Bistyryl", "1,4-Diphenylbutadiene", "1,4-Diphenyl-1,3-butadiene", "1,4-Diphenylerythrene", "Distyryl", "DPB", "\u03b1,\u03c9-Diphenylbutadiene", "DPB (fluor)", "NSC 122702"], "SMILES": "C(=CC=CC1=CC=CC=C1)C2=CC=CC=C2", "physical_data": {"Molecular Weight": "206.28", "Molecular Formula": "C16H14", "Boiling Point": "350 \u00b0C", "Melting Point": "152 \u00b0C"}}