{"cas_no": "886-74-8", "cn_name": "\u6c2f\u82ef\u6c28\u9178\u7518\u6cb9\u916f", "en_name": ["Chlorphenesin carbamate", "1,2-Propanediol, 3-(4-chlorophenoxy)-, 1-carbamate", "1,2-Propanediol, 3-(p-chlorophenoxy)-, 1-carbamate", "Carbamic acid, 3-(p-chlorophenoxy)-2-hydroxypropyl ester", "U-19,646", "3-(p-Chlorophenoxy)-2-hydroxypropyl carbamate", "3-[p-Chlorophenoxy]-1,2-propanediol-1-carbamate", "Chlorphenesin carbamate", "Maolate", "3-(4-Chlorophenoxy)-2-hydroxypropyl carbamate", "Rinlaxer", "U 19646", "NSC 82943", "Rhnesicn", "OC-201"], "SMILES": "O(CC(COC(N)=O)O)C1=CC=C(Cl)C=C1", "physical_data": {"Molecular Weight": "245.66", "Molecular Formula": "C10H12ClNO4", "Melting Point": "89-91 \u00b0C"}}