{"cas_no": "886-06-6", "cn_name": "BETA-\u5421\u54af\u70f7\u82ef\u4e19\u916e\u76d0\u9178\u76d0", "en_name": ["3-Piperidinopropiophenone hydrochloride", "1-Propanone, 1-phenyl-3-(1-piperidinyl)-, hydrochloride (1:1)", "Propiophenone, 3-piperidino-, hydrochloride", "1-Propanone, 1-phenyl-3-(1-piperidinyl)-, hydrochloride", "S 220", "N-(2-Benzoylethyl)piperidine hydrochloride", "3-Piperidinopropiophenone hydrochloride", "\u03b2-Piperidinopropiophenone hydrochloride", "3-(1-Piperidinyl)propiophenone hydrochloride", "1-(3-Oxo-3-phenylpropyl)piperidinium chloride", "1-(3-Oxo-3-phenylpropyl)piperidin-1-ium chloride", "1-(2-Benzoylethyl)piperidinium chloride", "1-Phenyl-3-(piperidin-1-yl)propan-1-one hydrochloride"], "SMILES": "C(CCN1CCCCC1)(=O)C2=CC=CC=C2.Cl", "physical_data": {"Molecular Weight": "", "Molecular Formula": "C14H19NO.ClH", "Melting Point": "192-193 \u00b0C"}}