{"cas_no": "886-38-4", "cn_name": "\u4e8c\u82ef\u57fa\u73af\u4e19\u70ef\u916e", "en_name": ["Diphenylcyclopropenone", "2-Cyclopropen-1-one, 2,3-diphenyl-", "Cyclopropenone, diphenyl-", "2,3-Diphenyl-2-cyclopropen-1-one", "2,3-Diphenylcyclopropenone", "Diphenylcyclopropenone", "1,2-Diphenylcyclopropenone", "Diphencyprone", "DPC", "NSC 57541", "Diphencyclopropenone", "Diphenyl cyclopropenone", "2,3-Diphenylcycloprop-2-enone", "2,3-Diphenyl-cycloprop-2-enone"], "SMILES": "O=C1C(=C1C2=CC=CC=C2)C3=CC=CC=C3", "physical_data": {"Molecular Weight": "206.24", "Molecular Formula": "C15H10O", "Melting Point": "119 \u00b0C", "Density": "1.202 g/cm\u00b3"}}