{"cas_no": "886-35-1", "cn_name": "3,5-\u53cc(\u4e09\u6c1f\u7532\u57fa)\u82ef\u80bc", "en_name": ["[3,5-Bis(trifluoromethyl)phenyl]hydrazine", "Hydrazine, [3,5-bis(trifluoromethyl)phenyl]-", "Hydrazine, (\u03b1,\u03b1,\u03b1,\u03b1\u2032,\u03b1\u2032,\u03b1\u2032-hexafluoro-3,5-xylyl)-", "[3,5-Bis(trifluoromethyl)phenyl]hydrazine", "3,5-Bis(trifluoromethyl)phenyl hydrazine"], "SMILES": "C(F)(F)(F)C1=CC(C(F)(F)F)=CC(NN)=C1", "physical_data": {"Molecular Weight": "244.14", "Molecular Formula": "C8H6F6N2", "Melting Point": "81-83 \u00b0C"}}