{"cas_no": "886-86-2", "cn_name": "3-\u6c28\u57fa\u82ef\u7532\u9178\u4e59\u916f\u7532\u57fa\u78fa\u9178\u76d0", "en_name": ["Tricaine methanesulfonate", "Benzoic acid, 3-amino-, ethyl ester, methanesulfonate (1:1)", "Benzoic acid, m-amino-, ethyl ester, methanesulfonate", "Benzoic acid, 3-amino-, ethyl ester, methanesulfonate", "MS 222", "Metacaine", "Tricaine methanesulfonate", "Tricaine", "Ethyl m-aminobenzoate methanesulfonate", "Finquel", "Metacain", "TS 222", "NSC 93790", "Ethyl 3-aminobenzoate methanesulfonate"], "SMILES": "S(C)(=O)(=O)O.C(OCC)(=O)C1=CC(N)=CC=C1", "physical_data": {"Molecular Weight": "", "Molecular Formula": "C9H11NO2.CH4O3S", "Melting Point": "149.5 \u00b0C"}}