{"cas_no": "886-66-8", "cn_name": "1\uff0c4-\u4e8c\u82ef\u57fa\u4e01\u4e8c\u7094", "en_name": ["1,4-Diphenyl-1,3-butadiyne", "Benzene, 1,1\u2032-(1,3-butadiyne-1,4-diyl)bis-", "Butadiyne, diphenyl-", "1,1\u2032-(1,3-Butadiyne-1,4-diyl)bis[benzene]", "Diphenylbutadiyne", "Diphenyldiacetylene", "1,4-Diphenylbutadiyne", "1,4-Diphenyl-1,3-butadiyne", "Diphenyl-1,3-butadiyne", "1,4-Diphenyldiacetylene", "NSC 529170", "(4-Phenylbuta-1,3-diyn-1-yl)benzene", "1,1\u2032-Buta-1,3-diyne-1,4-diyldibenzene"], "SMILES": "C(#CC#CC1=CC=CC=C1)C2=CC=CC=C2", "physical_data": {"Molecular Weight": "202.25", "Molecular Formula": "C16H10", "Boiling Point": "85-90 \u00b0C @ Press: 0.3 Torr", "Melting Point": "86-87 \u00b0C"}}