{"cas_no": "886-50-0", "cn_name": "\u7279\u4e01\u51c0", "en_name": ["Terbutryn", "1,3,5-Triazine-2,4-diamine, N2-(1,1-dimethylethyl)-N4-ethyl-6-(methylthio)-", "s-Triazine, 2-(tert-butylamino)-4-(ethylamino)-6-(methylthio)-", "1,3,5-Triazine-2,4-diamine, N-(1,1-dimethylethyl)-N\u2032-ethyl-6-(methylthio)-", "N2-(1,1-Dimethylethyl)-N4-ethyl-6-(methylthio)-1,3,5-triazine-2,4-diamine", "GS 14260", "2-tert-Butylamino-4-ethylamino-6-methylthio-s-triazine", "4-Ethylamino-2-methylthio-6-tert-butylamino-1,3,5-triazine", "6-tert-Butylamino-4-ethylamino-2-methylthio-1,3,5-triazine", "Igran 500", "Igran 50", "2-Methylthio-4-ethylamino-6-tert-butylamino-s-triazine", "Terbutryne", "Terbutryn", "A 1866", "2-Ethylamino-4-methylthio-6-tert-butylamino-1,3,5-triazine", "Igran", "2-Methylmercapto-4-ethylamino-6-tert-butylamino-1,3,5-triazine", "Clarosan", "Terbutrex", "Saterb", "tert-Butryn", "2-Methylthio-4-tert-butylamino-6-ethylamino-s-triazine", "Prebane"], "SMILES": "N(C(C)(C)C)C=1N=C(NCC)N=C(SC)N1", "physical_data": {"Molecular Weight": "241.36", "Molecular Formula": "C10H19N5S", "Boiling Point": "154-160 \u00b0C @ Press: 0.06 Torr", "Melting Point": "104 \u00b0C"}}