{"cas_no": "886230-76-8", "cn_name": "(E)-3-[2-(\u5421\u5576-2-\u57fa)\u4e59\u70ef\u57fa]-1-(\u56db\u6c22-2H-\u5421\u5583-2-\u57fa)-1H-\u5432\u5511-6-\u80fa", "en_name": ["3-[(1E)-2-(2-Pyridinyl)ethenyl]-1-(tetrahydro-2H-pyran-2-yl)-1H-indazol-6-amine", "1H-Indazol-6-amine, 3-[(1E)-2-(2-pyridinyl)ethenyl]-1-(tetrahydro-2H-pyran-2-yl)-", "3-[(1E)-2-(2-Pyridinyl)ethenyl]-1-(tetrahydro-2H-pyran-2-yl)-1H-indazol-6-amine", "(E)-3-[2-(Pyridin-2-yl)ethenyl]-1-(tetrahydro-2H-pyran-2-yl)-1H-indazol-6-amine"], "SMILES": "C(=CC1=CC=CC=N1)C=2C=3C(N(N2)C4CCCCO4)=CC(N)=CC3", "physical_data": {"Molecular Weight": "320.39", "Molecular Formula": "C19H20N4O", "Melting Point": "115-117 \u00b0C"}}