{"cas_no": "886373-28-0", "cn_name": "5-\u6eb4-3-\u6c1f-2-\u5421\u5576\u7532\u8148", "en_name": ["5-Bromo-3-fluoro-2-pyridinecarbonitrile", "2-Pyridinecarbonitrile, 5-bromo-3-fluoro-", "5-Bromo-3-fluoro-2-pyridinecarbonitrile", "5-Bromo-3-fluoropyridine-2-carbonitrile", "5-Bromo-3-fluoropicolinonitrile"], "SMILES": "C(#N)C1=C(F)C=C(Br)C=N1", "physical_data": {"Molecular Weight": "201.00", "Molecular Formula": "C6H2BrFN2", "Melting Point": "103-105 \u00b0C"}}