{"cas_no": "886362-07-8", "cn_name": "4-\u7532\u6c27\u57fa-1H-\u5432\u5511-3-\u80fa", "en_name": ["4-Methoxy-1H-indazol-3-amine", "1H-Indazol-3-amine, 4-methoxy-", "4-Methoxy-1H-indazol-3-amine", "4-(Methyloxy)-1H-indazol-3-amine"], "SMILES": "O(C)C1=C2C(NN=C2N)=CC=C1", "physical_data": {"Molecular Weight": "163.18", "Molecular Formula": "C8H9N3O", "Melting Point": "163-166 \u00b0C"}}