{"cas_no": "88678-67-5", "cn_name": "\u7a17\u8349\u754f", "en_name": ["Pyributicarb", "Carbamothioic acid, N-(6-methoxy-2-pyridinyl)-N-methyl-, O-[3-(1,1-dimethylethyl)phenyl] ester", "Carbamothioic acid, (6-methoxy-2-pyridinyl)methyl-, O-[3-(1,1-dimethylethyl)phenyl] ester", "Pyributicarb", "TSH 888", "O-3-tert-Butylphenyl N-(6-methoxy-2-pyridyl)-N-methylthiocarbamate", "Isshintasuke flowable", "Isshintasuke"], "SMILES": "O(C(N(C)C=1N=C(OC)C=CC1)=S)C2=CC(C(C)(C)C)=CC=C2", "physical_data": {"Molecular Weight": "330.44", "Molecular Formula": "C18H22N2O2S", "Melting Point": "86 \u00b0C"}}