{"cas_no": "88671-89-0", "cn_name": "\u8148\u83cc\u5511", "en_name": ["Myclobutanil", "1H-1,2,4-Triazole-1-propanenitrile, \u03b1-butyl-\u03b1-(4-chlorophenyl)-", "\u03b1-Butyl-\u03b1-(4-chlorophenyl)-1H-1,2,4-triazole-1-propanenitrile", "RH 3866", "Myclobutanil", "Systhane", "HOE 39304F", "Rally", "Systhane 6 Flo", "Nova W", "Nova", "Nu-Flow M", "Nova (pesticide)", "Systhane 12E", "(\u00b1)-Myclobutanil", "Nova 40W", "Systhane 40W", "Spectracide Immunox Multi-Purpose Fungicide", "Eagle", "Deccotanil", "Laredo 25EC", "Laredo 25EW", "Fungiben", "Mycloss Xtra", "Rally 40WSP", "Rally 40 WP", "Systhane 20EW", "Systhane Duplo"], "SMILES": "C(CN1C=NC=N1)(CCCC)(C#N)C2=CC=C(Cl)C=C2", "physical_data": {"Molecular Weight": "288.78", "Molecular Formula": "C15H17ClN4", "Boiling Point": "202-208 \u00b0C @ Press: 1 Torr", "Melting Point": "65.5 \u00b0C"}}