{"cas_no": "88709-17-5", "cn_name": "2-\u4e59\u6c27\u57fa-4-\u7532\u57fa\u82ef\u7532\u9178\u4e59\u916f", "en_name": ["Benzoic acid, 2-ethoxy-4-methyl-, ethyl ester", "Benzoic acid, 2-ethoxy-4-methyl-, ethyl ester", "Ethyl 2-ethoxy-4-methylbenzoate"], "SMILES": "O(CC)C1=C(C(OCC)=O)C=CC(C)=C1", "physical_data": {"Molecular Weight": "208.25", "Molecular Formula": "C12H16O3", "Boiling Point": "156 \u00b0C @ Press: 5 Torr"}}