{"cas_no": "88768-45-0", "cn_name": "2-\u5627\u5576\u786b\u4ee3\u4e59\u9178", "en_name": ["2-(2-Pyrimidinylthio)acetic acid", "Acetic acid, 2-(2-pyrimidinylthio)-", "Acetic acid, (2-pyrimidinylthio)-", "2-(2-Pyrimidinylthio)acetic acid", "(2-Pyrimidylthio)acetic acid", "[(Pyrimidin-2-yl)thio]acetic acid", "4-Pyrimidylthioacetic acid", "2-(Carboxymethylthio)pyrimidine", "(Pyrimidin-2-ylsulfanyl)acetic acid", "2-(Pyrimidin-2-ylsulfanyl)acetic acid", "2-Pyrimidin-2-ylsulfanylacetic acid"], "SMILES": "S(CC(O)=O)C=1N=CC=CN1", "physical_data": {"Molecular Weight": "170.19", "Molecular Formula": "C6H6N2O2S", "Melting Point": "199-200 \u00b0C"}}