{"cas_no": "88784-33-2", "cn_name": "(S)-2-(1,3-\u4e8c\u6c27\u4ee3-1,3-\u4e8c\u6c22\u5f02\u5432\u54da-2-\u57fa)\u620a\u4e8c\u9178-5-\u82c4\u916f", "en_name": ["5-(Phenylmethyl) (2S)-2-(1,3-dihydro-1,3-dioxo-2H-isoindol-2-yl)pentanedioate", "Pentanedioic acid, 2-(1,3-dihydro-1,3-dioxo-2H-isoindol-2-yl)-, 5-(phenylmethyl) ester, (2S)-", "Pentanedioic acid, 2-(1,3-dihydro-1,3-dioxo-2H-isoindol-2-yl)-, 5-(phenylmethyl) ester, (S)-", "5-(Phenylmethyl) (2S)-2-(1,3-dihydro-1,3-dioxo-2H-isoindol-2-yl)pentanedioate", "(S)-2-(1,3-Dioxo-1,3-dihydroisoindol-2-yl)pentanedioic acid 5-benzyl ester", "(S)-5-(Benzyloxy)-2-(1,3-dioxoisoindolin-2-yl)-5-oxopentanoic acid"], "SMILES": "C(CCC(OCC1=CC=CC=C1)=O)(C(O)=O)N2C(=O)C=3C(C2=O)=CC=CC3", "physical_data": {"Molecular Weight": "367.35", "Molecular Formula": "C20H17NO6", "Melting Point": "135-136 \u00b0C"}}