{"cas_no": "888504-28-7", "cn_name": "5-\u7532\u57fa-1,3,4-\u6076\u4e8c\u5511-2-\u7fa7\u9178\u94be", "en_name": ["1,3,4-Oxadiazole-2-carboxylic acid, 5-methyl-, potassium salt (1:1)", "1,3,4-Oxadiazole-2-carboxylic acid, 5-methyl-, potassium salt (1:1)", "1,3,4-Oxadiazole-2-carboxylic acid, 5-methyl-, potassium salt", "5-methyl-1,3,4-oxadiazole-2-carboxylic acid potassium salt", "Potassium 5-methyl-1,3,4-oxadiazole-2-carboxylate", "5-Methyl-1,3,4-oxadiazole-2-carboxylic acid potassium"], "SMILES": "C(O)(=O)C=1OC(C)=NN1.[K]", "physical_data": {"Molecular Weight": "", "Molecular Formula": "C4H4N2O3.K", "Melting Point": "258.3 \u00b0C (decomp)"}}