{"cas_no": "888504-27-6", "cn_name": "1,6-\u4e8c\u6c22-5-\u7f9f\u57fa-1-\u7532\u57fa-2-[1-\u7532\u57fa-1-[(\u82c4\u6c27\u57fa\u7fb0\u57fa)\u6c28\u57fa]\u4e59\u57fa]-6-\u6c27\u4ee3-4-\u5627\u5576\u7532\u9178\u7532\u916f", "en_name": ["Methyl 1,6-dihydro-5-hydroxy-1-methyl-2-[1-methyl-1-[[(phenylmethoxy)carbonyl]amino]ethyl]-6-oxo-4-pyrimidinecarboxylate", "4-Pyrimidinecarboxylic acid, 1,6-dihydro-5-hydroxy-1-methyl-2-[1-methyl-1-[[(phenylmethoxy)carbonyl]amino]ethyl]-6-oxo-, methyl ester", "Methyl 1,6-dihydro-5-hydroxy-1-methyl-2-[1-methyl-1-[[(phenylmethoxy)carbonyl]amino]ethyl]-6-oxo-4-pyrimidinecarboxylate", "2-(1-Benzyloxycarbonylamino-1-methylethyl)-5-hydroxy-1-methyl-6-oxo-1,6-dihydropyrimidine-4-carboxylic acid Methyl Ester"], "SMILES": "C(NC(OCC1=CC=CC=C1)=O)(C)(C)C=2N(C)C(=O)C(O)=C(C(OC)=O)N2", "physical_data": {"Molecular Weight": "375.38", "Molecular Formula": "C18H21N3O6", "Melting Point": "198.5-199.0 \u00b0C"}}