{"cas_no": "888711-54-4", "cn_name": "(1-\u54cc\u5576\u57fa\u7532\u57fa)\u4e09\u6c1f\u787c\u9178\u94be", "en_name": ["Borate(1-), trifluoro(1-piperidinylmethyl)-, potassium (1:1), (T-4)-", "Borate(1-), trifluoro(1-piperidinylmethyl)-, potassium (1:1), (T-4)-", "Borate(1-), trifluoro(1-piperidinylmethyl)-, potassium, (T-4)-", "Potassium trifluoro[(piperidin-1-yl)methyl]borate", "Potassium (piperidin-1-yl)methyltrifluoroborate"], "SMILES": "[CH2-]([B+3]([F-])([F-])[F-])N1CCCCC1.[K+]", "physical_data": {"Molecular Weight": "", "Molecular Formula": "C6H12BF3N.K", "Melting Point": "146-148 \u00b0C"}}