{"cas_no": "888711-53-3", "cn_name": "\u4e09\u6c1f[(\u5421\u54af\u70f7-1-\u57fa)\u7532\u57fa]\u787c\u9178\u94be", "en_name": ["Borate(1-), trifluoro(1-pyrrolidinylmethyl)-, potassium (1:1), (T-4)-", "Borate(1-), trifluoro(1-pyrrolidinylmethyl)-, potassium (1:1), (T-4)-", "Borate(1-), trifluoro(1-pyrrolidinylmethyl)-, potassium, (T-4)-", "Potassium trifluoro[(pyrrolidin-1-yl)methyl]borate"], "SMILES": "[CH2-]([B+3]([F-])([F-])[F-])N1CCCC1.[K+]", "physical_data": {"Molecular Weight": "", "Molecular Formula": "C5H10BF3N.K", "Melting Point": "85-87 \u00b0C"}}