{"cas_no": "88887-87-0", "cn_name": "1-\u7532\u57fa\u73af\u4e19\u80fa\u76d0\u9178\u76d0", "en_name": ["Cyclopropanamine, 1-methyl-, hydrochloride (1:1)", "Cyclopropanamine, 1-methyl-, hydrochloride (1:1)", "Cyclopropanamine, 1-methyl-, hydrochloride", "1-Methylcyclopropylamine hydrochloride", "1-Methyl-1-cyclopropanamine hydrochloride", "1-Methylcyclopropanamine hydrochloride", "1-Methylcyclopropanaminium chloride", "1-Methylcyclopropaneamine hydrochloride"], "SMILES": "CC1(N)CC1.Cl", "physical_data": {"Molecular Weight": "", "Molecular Formula": "C4H9N.ClH", "Melting Point": "204-205 \u00b0C"}}