{"cas_no": "88899-55-2", "cn_name": "\u5df4\u4f5b\u6d1b\u9709\u7d20 A1", "en_name": ["Bafilomycin A1", "Oxacyclohexadeca-3,5,11,13-tetraen-2-one, 8-hydroxy-16-[(1S,2R,3S)-2-hydroxy-1-methyl-3-[(2R,4R,5S,6R)-tetrahydro-2,4-dihydroxy-5-methyl-6-(1-methylethyl)-2H-pyran-2-yl]butyl]-3,15-dimethoxy-5,7,9,11-tetramethyl-, (3Z,5E,7R,8S,9S,11E,13E,15S,16R)-", "Hygrolidin, 21-O-de(3-carboxy-1-oxo-2-propenyl)-2-demethyl-2-methoxy-24-methyl-", "Oxacyclohexadecane, hygrolidin deriv.", "(3Z,5E,7R,8S,9S,11E,13E,15S,16R)-8-Hydroxy-16-[(1S,2R,3S)-2-hydroxy-1-methyl-3-[(2R,4R,5S,6R)-tetrahydro-2,4-dihydroxy-5-methyl-6-(1-methylethyl)-2H-pyran-2-yl]butyl]-3,15-dimethoxy-5,7,9,11-tetramethyloxacyclohexadeca-3,5,11,13-tetraen-2-one", "Bafilomycin A1", "Oxacyclohexadeca-3,5,11,13-tetraen-2-one, 8-hydroxy-16-[2-hydroxy-1-methyl-3-[tetrahydro-2,4-dihydroxy-5-methyl-6-(1-methylethyl)-2H-pyran-2-yl]butyl]-3,15-dimethoxy-5,7,9,11-tetramethyl-, [7R-[3Z,5E,7R*,8S*,9S*,11E,13E,15S*,16R*[1S*,2R*,3S*(2R*,4R*,5S*,6R*)]]]-", "(-)-Bafilomycin A1", "NSC 381866"], "SMILES": "C(C(C(C)C1C(OC)C=CC=C(C)CC(C)C(O)C(C)C=C(C)C=C(OC)C(=O)O1)O)(C)C2(O)OC(C(C)C)C(C)C(O)C2", "physical_data": {"Molecular Weight": "622.83", "Molecular Formula": "C35H58O9", "Melting Point": "96-97 \u00b0C"}}