{"cas_no": "88903-69-9", "cn_name": "XESTOSPONGIN C", "en_name": ["(1R,4aR,11R,12aS,13S,16aS,23R,24aS)-Eicosahydro-5H,17H-1,23:11,13-diethano-2H,14H-[1,11]dioxacycloeicosino[2,3-b:12,13-b\u2032]dipyridine", "5H,17H-1,23:11,13-Diethano-2H,14H-[1,11]dioxacycloeicosino[2,3-b:12,13-b\u2032]dipyridine, eicosahydro-, (1R,4aR,11R,12aS,13S,16aS,23R,24aS)-", "5H,17H-1,23:11,13-Diethano-2H,14H-[1,11]dioxacycloeicosino[2,3-b:12,13-b\u2032]dipyridine, eicosahydro-, [1R-(1R*,4aR*,11R*,12aS*,13S*,16aS*,23R*,24aS*)]-", "(1R,4aR,11R,12aS,13S,16aS,23R,24aS)-Eicosahydro-5H,17H-1,23:11,13-diethano-2H,14H-[1,11]dioxacycloeicosino[2,3-b:12,13-b\u2032]dipyridine", "Xestospongin C", "Xestospongine C", "(-)-Xestospongin C", "Araguspongin E", "(-)-Araguspongin E", "Araguspongine E", "(-)-Araguspongine E"], "SMILES": "C12N3CCC(O1)CCCCCCC4C5OC(CCCCCCC2CCC3)CCN5CCC4", "physical_data": {"Molecular Weight": "446.71", "Molecular Formula": "C28H50N2O2", "Melting Point": "146-147 \u00b0C"}}