{"cas_no": "88909-96-0", "cn_name": "4-(N-(1,8-NAPHTHALIMIDO))-N-BUTYRIC ACID", "en_name": ["Virstatin", "1H-Benz[de]isoquinoline-2(3H)-butanoic acid, 1,3-dioxo-", "1,3-Dioxo-1H-benz[de]isoquinoline-2(3H)-butanoic acid", "Virstatin", "ALX 430-147", "4-(1,3-Dioxo-1H-benzo[de]isoquinolin-2(3H)-yl)butanoate"], "SMILES": "O=C1C=2C=3C(C(=O)N1CCCC(O)=O)=CC=CC3C=CC2", "physical_data": {"Molecular Weight": "283.28", "Molecular Formula": "C16H13NO4", "Melting Point": "186-188 \u00b0C"}}