{"cas_no": "88919-22-6", "cn_name": "\u8212\u9a6c\u66f2\u666e\u5766\u4e2d\u95f4\u4f53", "en_name": ["3-(2-Aminoethyl)-N-methyl-1H-indole-5-methanesulfonamide", "1H-Indole-5-methanesulfonamide, 3-(2-aminoethyl)-N-methyl-", "3-(2-Aminoethyl)-N-methyl-1H-indole-5-methanesulfonamide", "1-[3-(2-Aminoethyl)-1H-indol-5-yl]-N-methylmethanesulfonamide"], "SMILES": "C(CN)C=1C=2C(NC1)=CC=C(CS(NC)(=O)=O)C2", "physical_data": {"Molecular Weight": "267.35", "Molecular Formula": "C12H17N3O2S", "Melting Point": "134-136 \u00b0C"}}