{"cas_no": "88917-22-0", "cn_name": "\u4e8c\u4e19\u4e8c\u9187\u7532\u919a\u918b\u9178\u916f", "en_name": ["Dipropylene glycol methyl ether acetate", "Propanol, 1(or 2)-(2-methoxymethylethoxy)-, acetate", "Dowanol DPMA", "Arcosolv DPMA", "Dipropylene glycol monomethyl ether acetate", "Dipropylene glycol methyl ether acetate", "DPM acetate", "DPMA (solvent)"], "SMILES": "", "physical_data": {"Molecular Weight": "", "Molecular Formula": "C9H18O4", "Boiling Point": "200 \u00b0C"}}