{"cas_no": "88929-35-5", "cn_name": "S-\uff08-\uff09-\u5965\u62c9\u897f\u5766", "en_name": ["(S)-Oxiracetam", "1-Pyrrolidineacetamide, 4-hydroxy-2-oxo-, (4S)-", "1-Pyrrolidineacetamide, 4-hydroxy-2-oxo-, (S)-", "(4S)-4-Hydroxy-2-oxo-1-pyrrolidineacetamide", "(S)-Oxiracetam", "(S)-4-Hydroxy-2-oxo-1-pyrrolidineacetamide", "Levo-oxiracetam", "(s)-2-(4-Hydroxy-2-oxopyrrolidin-1-yl)acetamide", "2-[(4S)-4-Hydroxy-2-oxopyrrolidin-1-yl]acetamide"], "SMILES": "C(C(N)=O)N1CC(O)CC1=O", "physical_data": {"Molecular Weight": "158.16", "Molecular Formula": "C6H10N2O3", "Melting Point": "135-136 \u00b0C"}}