{"cas_no": "88950-64-5", "cn_name": "Boc-1-\u6c28\u57fa\u73af\u4e19\u57fa\u7532\u9178", "en_name": ["1-[(tert-Butoxycarbonyl)amino]cyclopropanecarboxylic acid", "Cyclopropanecarboxylic acid, 1-[[(1,1-dimethylethoxy)carbonyl]amino]-", "1-[[(1,1-Dimethylethoxy)carbonyl]amino]cyclopropanecarboxylic acid", "1-[(tert-Butoxycarbonyl)amino]cyclopropanecarboxylic acid", "N-tert-Butoxycarbonyl 1-amino-1-cyclopropanecarboxylic acid", "1-[N-(tert-Butoxycarbonyl)amino]cyclopropanecarboxylic acid", "1-(Tert-Butoxycarbonylamino)cyclopropanecarboxylic acid", "1-(Boc-amino)cyclopropanecarboxylic acid", "Boc-Acpc-OH", "1-[[(tert-Butoxy)carbonyl]amino]cyclopropane-1-carboxylic acid", "1-[(2-Methylpropan-2-yl)oxycarbonylamino]cyclopropane-1-carboxylic acid", "1-((tert-Butoxycarbonyl)amino)cyclopropan-1-carboxylic acid"], "SMILES": "N(C(OC(C)(C)C)=O)C1(C(O)=O)CC1", "physical_data": {"Molecular Weight": "201.22", "Molecular Formula": "C9H15NO4", "Melting Point": "174.4-175.3 \u00b0C"}}