{"cas_no": "88965-00-8", "cn_name": "6-\u7532\u57fa-2-(4-\u7532\u57fa\u82ef\u57fa)\u54aa\u5511[1,2-a]\u5421\u5576", "en_name": ["6-Methyl-2-(4-methylphenyl)imidazo[1,2-a]pyridine", "Imidazo[1,2-a]pyridine, 6-methyl-2-(4-methylphenyl)-", "6-Methyl-2-(4-methylphenyl)imidazo[1,2-a]pyridine", "2-(4-Methylphenyl)-6-methylimidazo[1,2-a]pyridine"], "SMILES": "CC1=CC=C(C=2N=C3N(C2)C=C(C)C=C3)C=C1", "physical_data": {"Molecular Weight": "222.29", "Molecular Formula": "C15H14N2", "Melting Point": "227-229 \u00b0C"}}