{"cas_no": "89-01-0", "cn_name": "2,3-\u5421\u55ea\u4e8c\u7fa7\u9178", "en_name": ["2,3-Pyrazinedicarboxylic acid", "2,3-Pyrazinedicarboxylic acid", "2,3-Dicarboxypyrazine", "NSC 1908"], "SMILES": "C(O)(=O)C=1C(C(O)=O)=NC=CN1", "physical_data": {"Molecular Weight": "168.11", "Molecular Formula": "C6H4N2O4", "Melting Point": "193 \u00b0C (decomp)"}}