{"cas_no": "89-00-9", "cn_name": "2,3-\u5421\u5576\u4e8c\u7532\u9178", "en_name": ["Quinolinic acid", "2,3-Pyridinedicarboxylic acid", "Quinolinic acid", "NSC 13127", "NSC 18836", "NSC 403247", "MeSH ID: D017378"], "SMILES": "C(O)(=O)C1=C(C(O)=O)N=CC=C1", "physical_data": {"Molecular Weight": "167.12", "Molecular Formula": "C7H5NO4", "Melting Point": "185-190 \u00b0C (decomp)"}}