{"cas_no": "89-02-1", "cn_name": "2,4-\u4e8c\u785d\u57fa\u82ef\u78fa\u9178\u4e8c\u6c34\u5408\u7269", "en_name": ["2,4-Dinitrobenzenesulfonic acid", "Benzenesulfonic acid, 2,4-dinitro-", "2,4-Dinitrobenzenesulfonic acid", "NSC 152110", "NSC 163960", "2,4-Dinitrophenylsulfonic acid"], "SMILES": "N(=O)(=O)C1=C(S(=O)(=O)O)C=CC(N(=O)=O)=C1", "physical_data": {"Molecular Weight": "248.17", "Molecular Formula": "C6H4N2O7S", "Melting Point": "108 \u00b0C"}}