{"cas_no": "89-05-4", "cn_name": "\u5747\u82ef\u56db\u7532\u9178", "en_name": ["Pyromellitic acid", "1,2,4,5-Benzenetetracarboxylic acid", "Pyromellitic acid", "1,2,4,5-Tetracarboxybenzene", "NSC 6369"], "SMILES": "C(O)(=O)C1=C(C(O)=O)C=C(C(O)=O)C(C(O)=O)=C1", "physical_data": {"Molecular Weight": "254.15", "Molecular Formula": "C10H6O8", "Melting Point": "276 \u00b0C"}}