{"cas_no": "89-21-4", "cn_name": "4-\u6c2f-2-\u785d\u57fa\u82ef\u7532\u919a", "en_name": ["4-Chloro-1-methoxy-2-nitrobenzene", "Benzene, 4-chloro-1-methoxy-2-nitro-", "Anisole, 4-chloro-2-nitro-", "4-Chloro-1-methoxy-2-nitrobenzene", "4-Chloro-2-nitroanisole", "NSC 8445", "2-Nitro-4-chloroanisole", "5-Chloro-2-methoxynitrobenzene"], "SMILES": "N(=O)(=O)C1=C(OC)C=CC(Cl)=C1", "physical_data": {"Molecular Weight": "187.58", "Molecular Formula": "C7H6ClNO3", "Melting Point": "96 \u00b0C"}}