{"cas_no": "89-25-8", "cn_name": "\u4f9d\u8fbe\u62c9\u5949", "en_name": ["Edaravone", "3H-Pyrazol-3-one, 2,4-dihydro-5-methyl-2-phenyl-", "2-Pyrazolin-5-one, 3-methyl-1-phenyl-", "2,4-Dihydro-5-methyl-2-phenyl-3H-pyrazol-3-one", "C.I. Developer 1", "Developer Z", "1-Phenyl-3-methyl-2-pyrazolin-5-one", "1-Phenyl-3-methyl-5-pyrazolone", "Norphenazone", "3-Methyl-1-phenylpyrazolin-5-one", "3-Methyl-1-phenyl-2-pyrazoline-5-one", "3-Methyl-1-phenyl-5-pyrazolone", "1-Phenyl-3-methyl-5-pyrazolinone", "3-Methyl-1-phenyl-2-pyrazolin-5-one", "Norantipyrine", "MCI 186", "Edaravone", "1-Phenyl-3-methyl-5-oxopyrazole", "5-Methyl-2-phenylpyrazol-3-one", "3-Methyl-1-phenylpyrazol-5(4H)-one", "Radicut", "3-Methyl-1-phenyl-4,5-dihydropyrazol-5-one", "NSC 12", "Methylphenylpyrazolone", "NSC 26139", "NCI-C 03952", "NSC 2629", "Edarabone", "3-Methyl-1-phenyl-1H-pyrazol-5-one", "3-Methyl-1-phenyl-4,5-dihydropyrazole-5-one", "1-Phenyl-3-methyl-1H-4,5-dihydropyrazol-5-one", "5-Methyl-2-phenyl-2H-pyrazol-3(4H)-one", "3-Methyl-1-phenyl-1H-pyrazol-5(4H)-one", "5-Methyl-2-phenyl-2,4-dihydro-3H-pyrazol-3-one", "3-Methyl-1-phenyl-4,5-dihydro-1H-pyrazol-5-one", "Phenylmethyl pyrazolone", "Radicava", "4,5-Dihydro-3-methyl-5-oxo-1-phenylpyrazole", "Edvaradone", "3-Methyl-1-phenylpyrazole-5-one", "5-Methyl-2-phenyl-2,4-dihydropyrazol-3-one", "Edaravon", "Edavarone"], "SMILES": "O=C1N(N=C(C)C1)C2=CC=CC=C2", "physical_data": {"Molecular Weight": "174.20", "Molecular Formula": "C10H10N2O", "Boiling Point": "287 \u00b0C @ Press: 105 Torr", "Melting Point": "127 \u00b0C"}}