{"cas_no": "89-24-7", "cn_name": "5-\u82ef\u57fa\u6d77\u56e0", "en_name": ["Phenylhydantoin", "2,4-Imidazolidinedione, 5-phenyl-", "Hydantoin, 5-phenyl-", "5-Phenyl-2,4-imidazolidinedione", "5-Phenylhydantoin", "Phenylhydantoin", "DL-5-Phenylhydantoin", "(\u00b1)-5-Phenylhydantoin", "NSC 27302", "NSC 40885", "NSC 51847", "5-Phenylimidazoline-2,4-dione"], "SMILES": "O=C1C(NC(=O)N1)C2=CC=CC=C2", "physical_data": {"Molecular Weight": "176.17", "Molecular Formula": "C9H8N2O2", "Melting Point": "134-135 \u00b0C"}}