{"cas_no": "89-20-3", "cn_name": "4-\u6c2f\u90bb\u82ef\u4e8c\u9178", "en_name": ["4-Chlorophthalic acid", "1,2-Benzenedicarboxylic acid, 4-chloro-", "Phthalic acid, 4-chloro-", "4-Chloro-1,2-benzenedicarboxylic acid", "4-Chlorophthalic acid", "NSC 57755"], "SMILES": "C(O)(=O)C1=C(C(O)=O)C=C(Cl)C=C1", "physical_data": {"Molecular Weight": "200.58", "Molecular Formula": "C8H5ClO4", "Melting Point": "157 \u00b0C"}}