{"cas_no": "89-39-4", "cn_name": "1,4-\u4e8c\u7532\u6c27\u57fa-2-\u785d\u57fa\u82ef", "en_name": ["1,4-Dimethoxy-2-nitrobenzene", "Benzene, 1,4-dimethoxy-2-nitro-", "1,4-Dimethoxy-2-nitrobenzene", "2,5-Dimethoxynitrobenzene", "Nitrohydroquinone dimethyl ether", "NSC 1321", "NSC 37986"], "SMILES": "N(=O)(=O)C1=C(OC)C=CC(OC)=C1", "physical_data": {"Molecular Weight": "183.16", "Molecular Formula": "C8H9NO4", "Melting Point": "72.5 \u00b0C"}}