{"cas_no": "89-36-1", "cn_name": "1-(4-\u78fa\u9178\u82ef\u57fa)-3-\u7532\u57fa-5-\u5421\u5511\u916e", "en_name": ["1-(4\u2032-Sulfophenyl)-3-methyl-5-pyrazolone", "Benzenesulfonic acid, 4-(4,5-dihydro-3-methyl-5-oxo-1H-pyrazol-1-yl)-", "Benzenesulfonic acid, p-(3-methyl-5-oxo-2-pyrazolin-1-yl)-", "4-(4,5-Dihydro-3-methyl-5-oxo-1H-pyrazol-1-yl)benzenesulfonic acid", "3-Methyl-1-(p-sulfophenyl)-5-pyrazolone", "Pyrazoline G", "1-(p-Sulfophenyl)-3-methyl-5-pyrazolone", "p-(3-Methyl-5-oxo-2-pyrazolin-1-yl)benzenesulfonic acid", "3-Methyl-1-(4-sulfophenyl)-5-pyrazolone", "1-(4\u2032-Sulfophenyl)-3-methyl-5-pyrazolone", "3-Methyl-1-(p-sulfophenyl)-2-pyrazolin-5-one", "1-(4-Sulfophenyl)-3-methyl-5-pyrazolone", "1-(p-Sulfophenyl)-3-methylpyrazolin-5-one", "3-Methyl-1-phenyl-5-pyrazolone-4\u2032-sulfonic acid", "3-Methyl-1-(4-sulfophenyl)pyrazolin-5-one", "3-Methyl-1-(4\u2032-sulfophenyl)-5-pyrazolone", "NSC 26429", "NSC 4752", "4-(3-Methyl-5-oxo-4,5-dihydropyrazol-1-yl)benzenesulfonic acid"], "SMILES": "O=C1N(N=C(C)C1)C2=CC=C(S(=O)(=O)O)C=C2", "physical_data": {"Molecular Weight": "254.26", "Molecular Formula": "C10H10N2O4S", "Melting Point": "306 \u00b0C"}}