{"cas_no": "89-32-7", "cn_name": "\u5747\u82ef\u56db\u7532\u9178\u4e8c\u9150", "en_name": ["Pyromellitic dianhydride", "1H,3H-Benzo[1,2-c:4,5-c\u2032]difuran-1,3,5,7-tetrone", "1,2,4,5-Benzenetetracarboxylic 1,2:4,5-dianhydride", "Pyromellitic 1,2:4,5-dianhydride", "Pyromellitic dianhydride", "Pyromellitic anhydride", "Pyromellitic acid dianhydride", "1,2:4,5-Benzenetetracarboxylic dianhydride", "Pyromellitic acid anhydride", "1,2,4,5-Benzenetetracarboxylic acid dianhydride", "PMDA", "1,2,4,5-Benzenetetracarboxylic acid 1,2:4,5-dianhydride", "NSC 4798", "PMDA-M", "SY 4", "Benzene-1,2,4,5-tetracarboxylic dianhydride", "1H,3H-Benzol[1,2-c:4,5-c\u2032]difuran-1,3,5,7-tetrone", "Benzo[1,2-c:4,5-c\u2032]difuran-1,3,5,7-tetraone"], "SMILES": "O=C1C=2C(=CC3=C(C2)C(=O)OC3=O)C(=O)O1", "physical_data": {"Molecular Weight": "218.12", "Molecular Formula": "C10H2O6", "Boiling Point": "397-400 \u00b0C", "Melting Point": "286 \u00b0C", "Density": "1.68 g/cm\u00b3"}}