{"cas_no": "89-41-8", "cn_name": "4-\u7532\u6c27\u57fa-3-\u785d\u57fa\u82ef\u7532\u9178", "en_name": ["4-Methoxy-3-nitrobenzoic acid", "Benzoic acid, 4-methoxy-3-nitro-", "p-Anisic acid, 3-nitro-", "4-Methoxy-3-nitrobenzoic acid", "3-Nitro-p-anisic acid", "3-Nitro-4-methoxybenzoic acid", "NSC 29085"], "SMILES": "N(=O)(=O)C1=C(OC)C=CC(C(O)=O)=C1", "physical_data": {"Molecular Weight": "197.14", "Molecular Formula": "C8H7NO5", "Melting Point": "190-191 \u00b0C"}}