{"cas_no": "89-46-3", "cn_name": "\u8584\u8377\u9187\u6c34\u6768\u9178\u916f", "en_name": ["Menthyl salicylate", "Benzoic acid, 2-hydroxy-, (1R,2S,5R)-5-methyl-2-(1-methylethyl)cyclohexyl ester, rel-", "Salicylic acid, p-menth-3-yl ester", "Benzoic acid, 2-hydroxy-, 5-methyl-2-(1-methylethyl)cyclohexyl ester, (1\u03b1,2\u03b2,5\u03b1)-", "Menthol, salicylate", "Contrasol", "Menthyl salicylate", "Salimenthol", "Sunburn preventive No. 1", "Samol"], "SMILES": "C(C)(C)C1C(OC(=O)C2=C(O)C=CC=C2)CC(C)CC1", "physical_data": {"Molecular Weight": "276.37", "Molecular Formula": "C17H24O3", "Melting Point": "&lt;25 \u00b0C"}}