{"cas_no": "89-40-7", "cn_name": "4-\u785d\u57fa\u90bb\u82ef\u4e8c\u7532\u9170\u4e9a\u80fa", "en_name": ["4-Nitrophthalimide", "1H-Isoindole-1,3(2H)-dione, 5-nitro-", "Phthalimide, 4-nitro-", "5-Nitro-1H-isoindole-1,3(2H)-dione", "4-Nitrophthalimide", "5-Nitrophthalimide", "5-Nitroisoindole-1,3-dione", "NSC 5394", "5-Nitro-1H-isoindole-1,3(2H)-dione", "5-Nitroisoindoline-1,3-dione"], "SMILES": "O=C1C=2C(C(=O)N1)=CC=C(N(=O)=O)C2", "physical_data": {"Molecular Weight": "192.13", "Molecular Formula": "C8H4N2O4", "Melting Point": "201 \u00b0C"}}