{"cas_no": "89-52-1", "cn_name": "2-\u4e59\u9170\u6c28\u57fa\u82ef\u7532\u9178", "en_name": ["N-Acetylanthranilic acid", "Benzoic acid, 2-(acetylamino)-", "Anthranilic acid, N-acetyl-", "2-(Acetylamino)benzoic acid", "N-Acetylanthranilic acid", "o-(Acetylamino)benzoic acid", "2-Acetamidobenzoic acid", "2-Carboxyacetanilide", "o-Acetamidobenzoic acid", "1-Acetylamino-2-carboxybenzene", "o-(N-Acetylamino)benzoic acid", "NSC 17831", "NSC 4000"], "SMILES": "C(O)(=O)C1=C(NC(C)=O)C=CC=C1", "physical_data": {"Molecular Weight": "179.17", "Molecular Formula": "C9H9NO3", "Melting Point": "184-187 \u00b0C"}}