{"cas_no": "89-51-0", "cn_name": "\u90bb\u7fa7\u57fa\u82ef\u4e59\u9178", "en_name": ["Homophthalic acid", "Benzeneacetic acid, 2-carboxy-", "o-Toluic acid, \u03b1-carboxy-", "2-Carboxybenzeneacetic acid", "\u03b1-Carboxy-o-toluic acid", "Homophthalic acid", "Toluene-\u03b1,2-dicarboxylic acid", "(2-Carboxyphenyl)acetic acid", "(o-Carboxymethyl)benzoic acid", "o-Carboxybenzeneacetic acid", "NSC 149596", "NSC 15185", "NSC 401692", "2-Carboxymethylbenzoic acid"], "SMILES": "C(O)(=O)C1=C(CC(O)=O)C=CC=C1", "physical_data": {"Molecular Weight": "180.16", "Molecular Formula": "C9H8O4", "Melting Point": "175-177 \u00b0C"}}