{"cas_no": "89-59-8", "cn_name": "4-\u6c2f-2-\u785d\u57fa\u7532\u82ef", "en_name": ["4-Chloro-1-methyl-2-nitrobenzene", "Benzene, 4-chloro-1-methyl-2-nitro-", "Toluene, 4-chloro-2-nitro-", "4-Chloro-1-methyl-2-nitrobenzene", "4-Chloro-2-nitrotoluene", "p-Chloro-o-nitrotoluene", "2-Nitro-4-chlorotoluene", "4-Chloro-2-nitro-1-methylbenzene", "2-Methyl-5-chloronitrobenzene", "NSC 5386", "1-Chloro-4-methyl-3-nitrobenzene"], "SMILES": "N(=O)(=O)C1=C(C)C=CC(Cl)=C1", "physical_data": {"Molecular Weight": "171.58", "Molecular Formula": "C7H6ClNO2", "Boiling Point": "242 \u00b0C", "Melting Point": "38 \u00b0C"}}