{"cas_no": "89-57-6", "cn_name": "5-\u6c28\u57fa\u6c34\u6768\u9178", "en_name": ["5-Aminosalicylic acid", "Benzoic acid, 5-amino-2-hydroxy-", "Salicylic acid, 5-amino-", "5-Amino-2-hydroxybenzoic acid", "2-Hydroxy-5-aminobenzoic acid", "3-Carboxy-4-hydroxyaniline", "Pentasa", "Mesalamine", "5-Aminosalicylic acid", "Mesalazine", "Asacol", "5-ASA", "Salofalk", "Claversal", "Asacolitin", "Salozinal", "Mesacol", "Asacolon", "Fisalamine", "Lixacol", "Mesasal", "m-Aminosalicylic acid", "Rowasa", "NSC 38877", "Canasa", "Ipocol", "Asalit", "Lialda", "Mesalsal", "Novo-5 ASA", "Colasa", "Apriso", "Mezavant", "Rovasa", "Fivasa", "Delzicol", "MeSH ID: D019804"], "SMILES": "C(O)(=O)C1=C(O)C=CC(N)=C1", "physical_data": {"Molecular Weight": "153.14", "Molecular Formula": "C7H7NO3", "Melting Point": "283 \u00b0C"}}