{"cas_no": "89-54-3", "cn_name": "5-\u6c28\u57fa-2-\u6c2f\u82ef\u7532\u9178", "en_name": ["5-Amino-2-chlorobenzoic acid", "Benzoic acid, 5-amino-2-chloro-", "5-Amino-2-chlorobenzoic acid", "3-Amino-6-chlorobenzoic acid", "NSC 25172", "2-Chloro-5-aminobenzoic acid"], "SMILES": "C(O)(=O)C1=C(Cl)C=CC(N)=C1", "physical_data": {"Molecular Weight": "171.58", "Molecular Formula": "C7H6ClNO2", "Melting Point": "188 \u00b0C"}}