{"cas_no": "89-55-4", "cn_name": "5-\u6eb4\u6c34\u6768\u9178", "en_name": ["5-Bromosalicylic acid", "Benzoic acid, 5-bromo-2-hydroxy-", "Salicylic acid, 5-bromo-", "5-Bromo-2-hydroxybenzoic acid", "2-Hydroxy-5-bromobenzoic acid", "5-Bromosalicylic acid", "NSC 3981", "NSC 52393"], "SMILES": "C(O)(=O)C1=C(O)C=CC(Br)=C1", "physical_data": {"Molecular Weight": "217.02", "Molecular Formula": "C7H5BrO3", "Melting Point": "169.8 \u00b0C"}}