{"cas_no": "89-58-7", "cn_name": "2,5-\u4e8c\u7532\u57fa\u785d\u57fa\u82ef", "en_name": ["1,4-Dimethyl-2-nitrobenzene", "Benzene, 1,4-dimethyl-2-nitro-", "p-Xylene, 2-nitro-", "1,4-Dimethyl-2-nitrobenzene", "2,5-Dimethylnitrobenzene", "2-Nitro-1,4-dimethylbenzene", "2,5-Dimethyl-1-nitrobenzene", "2-Nitro-p-xylene", "Nitro-p-xylene", "1-Nitro-2,5-dimethylbenzene", "1,4-Dimethylnitrobenzene", "NSC 5591", "2-Nitro-4-xylene"], "SMILES": "N(=O)(=O)C1=C(C)C=CC(C)=C1", "physical_data": {"Molecular Weight": "151.16", "Molecular Formula": "C8H9NO2", "Boiling Point": "240.5 \u00b0C", "Melting Point": "-25 \u00b0C", "Density": "1.1228 g/cm\u00b3 @ Temp: 25 \u00b0C"}}