{"cas_no": "89-56-5", "cn_name": "5-\u7532\u57fa\u6c34\u6768\u9178", "en_name": ["5-Methylsalicylic acid", "Benzoic acid, 2-hydroxy-5-methyl-", "2,5-Cresotic acid", "2-Hydroxy-5-methylbenzoic acid", "p-Cresotic acid", "p-Cresotinic acid", "\u03b1-Cresotinic acid", "p-Homosalicylic acid", "6-Hydroxy-3-methylbenzoic acid", "6-Hydroxy-m-toluic acid", "5-Methyl-2-hydroxybenzoic acid", "5-Methylsalicylic acid", "NSC 38518"], "SMILES": "C(O)(=O)C1=C(O)C=CC(C)=C1", "physical_data": {"Molecular Weight": "152.15", "Molecular Formula": "C8H8O3", "Melting Point": "151 \u00b0C", "Density": "1.31 g/cm\u00b3"}}