{"cas_no": "89-62-3", "cn_name": "4-\u7532\u57fa-2-\u785d\u57fa\u82ef\u80fa", "en_name": ["4-Methyl-2-nitroaniline", "Benzenamine, 4-methyl-2-nitro-", "p-Toluidine, 2-nitro-", "4-Methyl-2-nitrobenzenamine", "C.I. 37110", "Amarthol Fast Red GL Base", "Amarthol Fast Red GL Salt", "Azobase NAT", "Azoene Fast Red Red GL Salt", "Azofix Red GL Salt", "Azoic Diazo Component 8", "C.I. Azoic Diazo Component 8", "Devol Red G", "Devol Red Salt G", "Diazo Fast Red GL", "Fast Red G Base", "Fast Red 3NT Base", "Fast Red Base GL", "Fast Red Base JL", "Fast Red GL", "Fast Red GL Base", "Fast Red MGL Base", "Fast Red 3NT Salt", "HD Fast Red GL Base", "Hiltonil Fast Red GL Base", "Hiltosal Fast Red GL Salt", "Lake Red G Base", "Lithosol Scarlet Base M", "Lithosol Scarlet Base MB", "Lithosol Scarlet Base MBW", "Lithosol Scarlet Base MW", "4-Methyl-2-nitroaniline", "Mitsui Red GL Base", "MNPT", "Naphthanil Red G Base", "Naphtoelan Fast Red GL Base", "2-Nitro-p-toluidine", "Red G Base", "Red Base Ciba VII", "Red Base Irga VII", "Red Base NGL", "Red G Salt", "Red Salt Ciba VII", "Red Salt Irga VII", "Sanyo Fast Red GL Base", "Shinnippon Fast Red GL Base", "Toyo Fast Red GL Base", "Tulabase Fast Red GL", "2-Nitro-4-methylaniline", "Azoamine Red A", "1-Amino-2-nitro-4-methylbenzene", "4-Amino-3-nitrotoluene", "3-Nitro-4-aminotoluene", "4-Methyl-6-nitroaniline", "4-Methyl-o-nitroaniline", "o-Nitro-p-methylaniline", "NSC 2759", "(4-Methyl-2-nitrophenyl)amine", "F. Red Gl Base", "Conazoic Diazo M", "Dycosbase Red GL Base", "Azobase Red NAT", "p-Methyl-o-nitroaniline"], "SMILES": "N(=O)(=O)C1=C(N)C=CC(C)=C1", "physical_data": {"Molecular Weight": "152.15", "Molecular Formula": "C7H8N2O2", "Boiling Point": "110-112 \u00b0C", "Melting Point": "116.3 \u00b0C"}}