{"cas_no": "89-60-1", "cn_name": "3-\u785d\u57fa-4-\u6c2f\u7532\u82ef", "en_name": ["4-Chloro-3-nitrotoluene", "Benzene, 1-chloro-4-methyl-2-nitro-", "Toluene, 4-chloro-3-nitro-", "1-Chloro-4-methyl-2-nitrobenzene", "4-Chloro-3-nitrotoluene", "3-Nitro-4-chlorotoluene", "2-Chloro-5-methylnitrobenzene", "1-Chloro-2-nitro-4-methylbenzene", "2-Chloro-5-methyl-1-nitrobenzene", "NSC 60721"], "SMILES": "N(=O)(=O)C1=C(Cl)C=CC(C)=C1", "physical_data": {"Molecular Weight": "171.58", "Molecular Formula": "C7H6ClNO2", "Boiling Point": "261 \u00b0C", "Melting Point": "7 \u00b0C"}}