{"cas_no": "89-61-2", "cn_name": "2,5-\u4e8c\u6c2f\u785d\u57fa\u82ef", "en_name": ["2,5-Dichloronitrobenzene", "Benzene, 1,4-dichloro-2-nitro-", "Benzene, 1,4-dichloro-3-nitro-", "1,4-Dichloro-2-nitrobenzene", "2,5-Dichloronitrobenzene", "Nitro-p-dichlorobenzene", "2,5-Dichloro-1-nitrobenzene", "1-Nitro-2,5-dichlorobenzene", "1,4-Dichloro-3-nitrobenzene", "2-Nitro-1,4-dichlorobenzene", "NSC 406125", "NSC 6294"], "SMILES": "N(=O)(=O)C1=C(Cl)C=CC(Cl)=C1", "physical_data": {"Molecular Weight": "192.00", "Molecular Formula": "C6H3Cl2NO2", "Boiling Point": "267 \u00b0C", "Melting Point": "56 \u00b0C", "Density": "1.704 g/cm\u00b3 @ Temp: 16 \u00b0C"}}