{"cas_no": "89-65-6", "cn_name": "D-\u5f02\u6297\u574f\u8840\u9178", "en_name": ["Erythorbic acid", "D-erythro-Hex-2-enonic acid, \u03b3-lactone", "Erythorbic acid", "D-erythro-Hexonic acid, 3-keto-, \u03b3-lactone", "Erycorbin", "Glucosaccharonic acid", "Isoascorbic acid", "Isovitamin C", "Mercate 5", "Saccharosonic acid", "D-Araboascorbic acid", "Araboascorbic acid, D-", "D-(-)-Isoascorbic acid", "Araboascorbic acid", "D-Isoascorbic acid", "Neo-Cebicure", "D-Erythorbic acid", "D-arabino-Ascorbic acid", "NSC 8117", "E 315"], "SMILES": "C(CO)(O)C1C(O)=C(O)C(=O)O1", "physical_data": {"Molecular Weight": "176.12", "Molecular Formula": "C6H8O6", "Melting Point": "174 \u00b0C (decomp)", "Density": "1.654 g/cm\u00b3"}}