{"cas_no": "89-69-0", "cn_name": "2,4,5-\u4e09\u6c2f\u785d\u57fa\u82ef", "en_name": ["2,4,5-Trichloronitrobenzene", "Benzene, 1,2,4-trichloro-5-nitro-", "1,2,4-Trichloro-5-nitrobenzene", "2,4,5-Trichloro-1-nitrobenzene", "2,4,5-Trichloronitrobenzene", "3,4,6-Trichloronitrobenzene", "1,4,5-Trichloro-2-nitrobenzene", "NSC 50660", "NSC 56980", "NSC 60975"], "SMILES": "N(=O)(=O)C1=C(Cl)C=C(Cl)C(Cl)=C1", "physical_data": {"Molecular Weight": "226.44", "Molecular Formula": "C6H2Cl3NO2", "Boiling Point": "288 \u00b0C", "Melting Point": "57.5 \u00b0C"}}