{"cas_no": "89-68-9", "cn_name": "4-\u6c2f-2-\u5f02\u4e19\u57fa-5-\u7532\u57fa\u82ef\u915a", "en_name": ["Chlorothymol", "Phenol, 4-chloro-5-methyl-2-(1-methylethyl)-", "Thymol, 6-chloro-", "4-Chloro-5-methyl-2-(1-methylethyl)phenol", "6-Chlorothymol", "Chlorothymol", "Chlorthymol", "4-Chloro-6-isopropyl-3-methylphenol", "2-Isopropyl-4-chloro-5-methylphenol", "4-Chloro-2-isopropyl-5-methylphenol", "NSC 406261", "NSC 4964", "4-Chloro-5-methyl-2-(propan-2-yl)phenol"], "SMILES": "C(C)(C)C1=C(O)C=C(C)C(Cl)=C1", "physical_data": {"Molecular Weight": "184.66", "Molecular Formula": "C10H13ClO", "Boiling Point": "258.5 \u00b0C", "Melting Point": "63 \u00b0C"}}