{"cas_no": "89-63-4", "cn_name": "4-\u6c2f-2-\u785d\u57fa\u82ef\u80fa", "en_name": ["4-Chloro-2-nitroaniline", "Benzenamine, 4-chloro-2-nitro-", "Aniline, 4-chloro-2-nitro-", "4-Chloro-2-nitrobenzenamine", "Azoene Fast Red 3GL Base", "p-Chloro-o-nitroaniline", "Daito Red Base 3GL", "Devol Red F", "Diazo Fast Red 3GL", "Fast Red 2NC Base", "Fast Red 3GL Base", "Fast Red Base 3JL", "Fast Red 3GL Special Base", "Hiltonil Fast Red 3GL Base", "Kayaku Fast Red 3GL Base", "Mitsui Red 3GL Base", "Naphthanil Red 3G Base", "Naphtoelan Fast Red 3GL Base", "PCON", "PCONA", "Red 3G base", "Red Base Ciba VI", "Red Base 3GL", "Red Base Irga VI", "Shinnippon Fast Red 3GL Base", "4-Chloro-2-nitroaniline", "2-Nitro-4-chloroaniline", "1-Amino-2-nitro-4-chlorobenzene", "NSC 3546", "(4-Chloro-2-nitrophenyl)amine"], "SMILES": "N(=O)(=O)C1=C(N)C=CC(Cl)=C1", "physical_data": {"Molecular Weight": "172.57", "Molecular Formula": "C6H5ClN2O2", "Boiling Point": "135-137 \u00b0C @ Press: 2 x 10<sup>-4</sup> Torr", "Melting Point": "116-117 \u00b0C"}}