{"cas_no": "89-67-8", "cn_name": "\u8461\u5e9a\u7cd6\u9178\u5185\u916f", "en_name": ["D-glycero-D-gulo-Heptonic acid, \u03b3-lactone", "D-glycero-D-gulo-Heptonic acid, \u03b3-lactone", "NSC 2558"], "SMILES": "C(C(CO)O)(O)C1C(O)C(O)C(=O)O1", "physical_data": {"Molecular Weight": "208.17", "Molecular Formula": "C7H12O7", "Melting Point": "148-149 \u00b0C"}}