{"cas_no": "89-64-5", "cn_name": "4-\u6c2f-2-\u785d\u57fa\u82ef\u915a", "en_name": ["4-Chloro-2-nitrophenol", "Phenol, 4-chloro-2-nitro-", "4-Chloro-2-nitrophenol", "2-Nitro-4-chlorophenol", "5-Chloro-2-hydroxynitrobenzene", "p-Chloro-o-nitrophenol", "NSC 520345", "4-Chloro-6-nitrophenol"], "SMILES": "N(=O)(=O)C1=C(O)C=CC(Cl)=C1", "physical_data": {"Molecular Weight": "173.55", "Molecular Formula": "C6H4ClNO3", "Melting Point": "88.5 \u00b0C"}}