{"cas_no": "89-79-2", "cn_name": "\u5f02\u84b2\u52d2\u9187", "en_name": ["(-)-Isopulegol", "Cyclohexanol, 5-methyl-2-(1-methylethenyl)-, (1R,2S,5R)-", "p-Menth-8-en-3-ol, (1R,3R,4S)-(-)-", "Cyclohexanol, 5-methyl-2-(1-methylethenyl)-, [1R-(1\u03b1,2\u03b2,5\u03b1)]-", "(1R,2S,5R)-5-Methyl-2-(1-methylethenyl)cyclohexanol", "Isopulegol", "(-)-Isopulegol", "l-Isopulegol", "iso-Pulegol", "(-)-L-Isopulegol", "L-Isopulegol", "Isopugenol I", "(1R,2S,5R)-(-)-Isopulegol", "(1R,2S,5R)-2-Isopropenyl-5-methylcyclohexanol", "trans-Isoperitenol", "Isopulegol I", "Coolact", "(1R,2S,5R)-5-Methyl-2-(prop-1-en-2-yl)cyclohexan-1-ol", "CA-P (Isopulegol)"], "SMILES": "C(C)(=C)C1C(O)CC(C)CC1", "physical_data": {"Molecular Weight": "154.25", "Molecular Formula": "C10H18O", "Boiling Point": "93-94 \u00b0C", "Melting Point": "78 \u00b0C", "Density": "0.911 g/cm\u00b3 @ Temp: 20 \u00b0C"}}