{"cas_no": "89-72-5", "cn_name": "\u90bb\u4ef2\u4e01\u57fa\u82ef\u915a", "en_name": ["2-sec-Butylphenol", "Phenol, 2-(1-methylpropyl)-", "Phenol, o-sec-butyl-", "2-(1-Methylpropyl)phenol", "o-sec-Butylphenol", "2-sec-Butylphenol", "2-(2-Butyl)phenol", "(\u00b1)-2-sec-Butylphenol", "2-(Butan-2-yl)phenol", "2-Butan-2-ylphenol"], "SMILES": "C(CC)(C)C1=C(O)C=CC=C1", "physical_data": {"Molecular Weight": "150.22", "Molecular Formula": "C10H14O", "Boiling Point": "224-237 \u00b0C", "Melting Point": "14 \u00b0C", "Density": "98.04 g/cm\u00b3 @ Temp: 25 \u00b0C"}}