{"cas_no": "89-75-8", "cn_name": "2,4-\u4e8c\u6c2f\u82ef\u7532\u9170\u6c2f", "en_name": ["2,4-Dichlorobenzoyl chloride", "Benzoyl chloride, 2,4-dichloro-", "2,4-Dichlorobenzoyl chloride", "o,p-Dichlorobenzoyl chloride"], "SMILES": "C(Cl)(=O)C1=C(Cl)C=C(Cl)C=C1", "physical_data": {"Molecular Weight": "209.46", "Molecular Formula": "C7H3Cl3O", "Boiling Point": "110.5-111.5 \u00b0C @ Press: 7.5 Torr", "Melting Point": "16.5 \u00b0C"}}