{"cas_no": "89-77-0", "cn_name": "2-\u6c28\u57fa-4-\u6c2f\u82ef\u7532\u9178", "en_name": ["2-Amino-4-chlorobenzoic acid", "Benzoic acid, 2-amino-4-chloro-", "Anthranilic acid, 4-chloro-", "2-Amino-4-chlorobenzoic acid", "4-Chloroanthranilic acid", "4-Chloro-2-aminobenzoic acid", "NSC 17188"], "SMILES": "C(O)(=O)C1=C(N)C=C(Cl)C=C1", "physical_data": {"Molecular Weight": "171.58", "Molecular Formula": "C7H6ClNO2", "Melting Point": "232 \u00b0C"}}