{"cas_no": "89-74-7", "cn_name": "2,4-\u4e8c\u7532\u57fa\u82ef\u4e59\u916e", "en_name": ["2\u2032,4\u2032-Dimethylacetophenone", "Ethanone, 1-(2,4-dimethylphenyl)-", "Acetophenone, 2\u2032,4\u2032-dimethyl-", "Acetophenone, 2,4-dimethyl-", "1-(2,4-Dimethylphenyl)ethanone", "2,4-Dimethylacetophenone", "2\u2032,4\u2032-Dimethylacetophenone", "NSC 15333", "2,4-Dimethylphenyl methyl ketone"], "SMILES": "C(C)(=O)C1=C(C)C=C(C)C=C1", "physical_data": {"Molecular Weight": "148.20", "Molecular Formula": "C10H12O", "Boiling Point": "228 \u00b0C", "Density": "1.0135 g/cm\u00b3 @ Temp: 20 \u00b0C"}}