{"cas_no": "89-73-6", "cn_name": "\u6c34\u6768\u7f9f\u809f\u9178", "en_name": ["Salicylhydroxamic acid", "Benzamide, N,2-dihydroxy-", "Salicylohydroxamic acid", "N,2-Dihydroxybenzamide", "2-Hydroxybenzohydroxamic acid", "SHA", "o-Hydroxybenzohydroxamic acid", "2-Hydroxyphenylhydroxamic acid", "SHAM", "N-Salicylhydroxamic acid", "2-Hydroxybenzenehydroxamic acid", "Salicylhydroxamic acid", "NSC 193440", "NSC 5088", "1-N-Hydroxy2-hydroxybenzene-1-carboximidic acid"], "SMILES": "C(NO)(=O)C1=C(O)C=CC=C1", "physical_data": {"Molecular Weight": "153.14", "Molecular Formula": "C7H7NO3", "Melting Point": "168 \u00b0C"}}