{"cas_no": "89-71-4", "cn_name": "\u90bb\u7532\u57fa\u82ef\u7532\u9178\u7532\u916f", "en_name": ["Methyl 2-methylbenzoate", "Benzoic acid, 2-methyl-, methyl ester", "o-Toluic acid, methyl ester", "Methyl 2-methylbenzoate", "Methyl o-toluate", "Methyl o-methylbenzoate", "Methyl orthotoluate", "2-Methylbenzoic acid methyl ester", "NSC 9402", "Methyl 2-toluate", "2-Toluic acid methyl ester"], "SMILES": "C(OC)(=O)C1=C(C)C=CC=C1", "physical_data": {"Molecular Weight": "150.17", "Molecular Formula": "C9H10O2", "Boiling Point": "215 \u00b0C", "Melting Point": "&lt;-50 \u00b0C"}}