{"cas_no": "89-87-2", "cn_name": "1,3-\u4e8c\u7532\u57fa-4-\u785d\u57fa\u82ef", "en_name": ["4-Nitro-m-xylene", "Benzene, 2,4-dimethyl-1-nitro-", "m-Xylene, 4-nitro-", "2,4-Dimethyl-1-nitrobenzene", "4-Nitro-1,3-dimethylbenzene", "4-Nitro-m-xylene", "4-Nitro-1,3-xylene", "1-Nitro-2,4-dimethylbenzene", "1,3-Dimethyl-4-nitrobenzene", "NSC 50661"], "SMILES": "N(=O)(=O)C1=C(C)C=C(C)C=C1", "physical_data": {"Molecular Weight": "151.16", "Molecular Formula": "C8H9NO2", "Boiling Point": "247 \u00b0C", "Melting Point": "9 \u00b0C"}}