{"cas_no": "89-82-7", "cn_name": "\u957f\u53f6\u8584\u8377\u916e", "en_name": ["(+)-Pulegone", "Cyclohexanone, 5-methyl-2-(1-methylethylidene)-, (5R)-", "p-Menth-4(8)-en-3-one, (R)-(+)-", "Cyclohexanone, 5-methyl-2-(1-methylethylidene)-, (R)-", "(5R)-5-Methyl-2-(1-methylethylidene)cyclohexanone", "Pulegone", "(+)-Pulegone", "d-Pulegone", "(+)-(R)-Pulegone", "Pulegon", "(1R)-(+)-p-Menth-4(8)-en-3-one", "(R)-Pulegone", "(R)-(+)-Pulegone", "(R)-(+)-p-Menth-4(8)-en-3-one", "(1R)-Pulegone", "NSC 15334", "L-Pulegone", "(5R)-5-Methyl-2-propan-2-ylidenecyclohexan-1-one"], "SMILES": "C(C)(C)=C1C(=O)CC(C)CC1", "physical_data": {"Molecular Weight": "152.23", "Molecular Formula": "C10H16O", "Boiling Point": "224 \u00b0C", "Melting Point": "&lt;25 \u00b0C", "Density": "0.93808 g/cm\u00b3 @ Temp: 16.9 \u00b0C"}}