{"cas_no": "89-80-5", "cn_name": "\u80e1\u8584\u8377\u916e", "en_name": ["(\u00b1)-Menthone", "Cyclohexanone, 5-methyl-2-(1-methylethyl)-, (2R,5S)-rel-", "p-Menthan-3-one, trans-", "Cyclohexanone, 5-methyl-2-(1-methylethyl)-, trans-", "rel-(2R,5S)-5-Methyl-2-(1-methylethyl)cyclohexanone", "Neomenthone", "trans-p-Menthan-3-one", "Menthone", "p-Menthone", "trans-Menthan-3-one", "trans-Menthone", "dl-Menthone", "(\u00b1)-Menthone", "DL-Menthone", "trans-p-Menthone", "Menthone G"], "SMILES": "C(C)(C)C1C(=O)CC(C)CC1", "physical_data": {"Molecular Weight": "154.25", "Molecular Formula": "C10H18O", "Boiling Point": "210 \u00b0C", "Density": "0.8980 g/cm\u00b3 @ Temp: 20 \u00b0C"}}