{"cas_no": "89-86-1", "cn_name": "2,4-\u4e8c\u7f9f\u57fa\u82ef\u7532\u9178", "en_name": ["2,4-Dihydroxybenzoic acid", "Benzoic acid, 2,4-dihydroxy-", "\u03b2-Resorcylic acid", "2,4-Dihydroxybenzoic acid", "4-Hydroxysalicylic acid", "p-Hydroxysalicylic acid", "4-Carboxyresorcinol", "\u03b2-Resorcinolic acid", "Coupler 320", "NSC 13564", "NSC 4740"], "SMILES": "C(O)(=O)C1=C(O)C=C(O)C=C1", "physical_data": {"Molecular Weight": "154.12", "Molecular Formula": "C7H6O4", "Melting Point": "226 \u00b0C (decomp)"}}