{"cas_no": "89-81-6", "cn_name": "\u80e1\u6912\u916e", "en_name": ["(\u00b1)-Piperitone", "2-Cyclohexen-1-one, 3-methyl-6-(1-methylethyl)-", "p-Menth-1-en-3-one", "3-Methyl-6-(1-methylethyl)-2-cyclohexen-1-one", "3-Carvomenthenone", "4-Isopropyl-1-methyl-1-cyclohexen-3-one", "Piperitone", "3-Methyl-6-isopropyl-2-cyclohexen-1-one", "6-Isopropyl-3-methyl-2-cyclohexen-1-one", "dl-Piperitone", "(\u00b1)-Piperitone", "NSC 251528", "3-Methyl-6-propan-2-ylcyclohex-2-en-1-one", "3-Methyl-6-(propan-2-yl)cyclohex-2-en-1-one"], "SMILES": "C(C)(C)C1C(=O)C=C(C)CC1", "physical_data": {"Molecular Weight": "152.23", "Molecular Formula": "C10H16O", "Boiling Point": "233 \u00b0C", "Melting Point": "&lt;25 \u00b0C", "Density": "0.9331 g/cm\u00b3 @ Temp: 20 \u00b0C"}}