{"cas_no": "89-84-9", "cn_name": "2,4-\u4e8c\u7f9f\u57fa\u82ef\u4e59\u916e", "en_name": ["2\u2032,4\u2032-Dihydroxyacetophenone", "Ethanone, 1-(2,4-dihydroxyphenyl)-", "Acetophenone, 2\u2032,4\u2032-dihydroxy-", "1-(2,4-Dihydroxyphenyl)ethanone", "Resacetophenone", "Resoacetophenone", "2\u2032,4\u2032-Dihydroxyacetophenone", "\u03b2-Resacetophenone", "4-Acetylresorcinol", "1-Acetylbenzene-2,4-diol", "4-Acetyl-1,3-benzenediol", "NSC 10883", "NSC 37559", "2\u2032,4\u2032-Dihydroxyphenyl methyl ketone"], "SMILES": "C(C)(=O)C1=C(O)C=C(O)C=C1", "physical_data": {"Molecular Weight": "152.15", "Molecular Formula": "C8H8O3", "Melting Point": "146 \u00b0C"}}