{"cas_no": "89-83-8", "cn_name": "\u9e9d\u9999\u8349\u915a", "en_name": ["Thymol", "Phenol, 5-methyl-2-(1-methylethyl)-", "Thymol", "5-Methyl-2-(1-methylethyl)phenol", "p-Cymen-3-ol", "3-Hydroxy-p-cymene", "1-Methyl-3-hydroxy-4-isopropylbenzene", "5-Methyl-2-isopropyl-1-phenol", "Thyme camphor", "2-Hydroxy-1-isopropyl-4-methylbenzene", "3-Methyl-6-isopropylphenol", "2-Isopropyl-5-methylphenol", "5-Methyl-2-isopropylphenol", "m-Thymol", "6-Isopropyl-3-methylphenol", "6-Isopropyl-m-cresol", "Thymol Chrystals", "NSC 11215", "NSC 47821", "NSC 49142", "Apiguard", "T 0501", "5-Methyl-2-propan-2-ylphenol", "Marukarep RM", "MeSH ID: D013943"], "SMILES": "C(C)(C)C1=C(O)C=C(C)C=C1", "physical_data": {"Molecular Weight": "150.22", "Molecular Formula": "C10H14O", "Boiling Point": "233 \u00b0C", "Melting Point": "52 \u00b0C", "Density": "0.9699 g/cm\u00b3 @ Temp: 25 \u00b0C"}}