{"cas_no": "89-97-4", "cn_name": "\u90bb\u6c2f\u82ef\u7532\u80fa", "en_name": ["2-Chlorobenzylamine", "Benzenemethanamine, 2-chloro-", "Benzylamine, o-chloro-", "2-Chlorobenzenemethanamine", "2-Chlorobenzylamine", "o-Chlorobenzylamine", "1-(2-Chlorophenyl)methanamine", "NSC 60118", "(2-Chlorophenyl)methanamine", "\u03b1-Amino-2-chlorotoluene"], "SMILES": "C(N)C1=C(Cl)C=CC=C1", "physical_data": {"Molecular Weight": "141.60", "Molecular Formula": "C7H8ClN", "Boiling Point": "211-213 \u00b0C @ Press: 14 Torr", "Melting Point": "227-228 \u00b0C"}}