{"cas_no": "89-92-9", "cn_name": "2-\u7532\u57fa\u82c4\u6eb4", "en_name": ["2-Methylbenzyl bromide", "Benzene, 1-(bromomethyl)-2-methyl-", "o-Xylene, \u03b1-bromo-", "1-(Bromomethyl)-2-methylbenzene", "\u03b1-Bromo-o-xylene", "2-Methylbenzyl bromide", "2-Xylyl bromide", "2-(Bromomethyl)toluene", "o-Methylbenzyl bromide", "o-Xylyl bromide", "NSC 60145", "o-(Bromomethyl)toluene"], "SMILES": "C(Br)C1=C(C)C=CC=C1", "physical_data": {"Molecular Weight": "185.06", "Molecular Formula": "C8H9Br", "Boiling Point": "216-217 \u00b0C @ Press: 742 Torr", "Melting Point": "21 \u00b0C", "Density": "1.381 g/cm\u00b3 @ Temp: 23 \u00b0C"}}