{"cas_no": "89-98-5", "cn_name": "\u90bb\u6c2f\u82ef\u7532\u919b", "en_name": ["2-Chlorobenzaldehyde", "Benzaldehyde, 2-chloro-", "Benzaldehyde, o-chloro-", "2-Chlorobenzaldehyde", "o-Chlorobenzaldehyde", "o-Chlorobenzenecarboxaldehyde", "2-Chlorobenzoic aldehyde", "o-Chloroformylbenzene", "NSC 15347", "2-Chlorophenylcarboxaldehyde"], "SMILES": "C(=O)C1=C(Cl)C=CC=C1", "physical_data": {"Molecular Weight": "140.57", "Molecular Formula": "C7H5ClO", "Boiling Point": "211.9 \u00b0C @ Press: 760 Torr", "Melting Point": "12.39 \u00b0C", "Density": "1.2483 g/cm\u00b3 @ Temp: 20 \u00b0C"}}