{"cas_no": "89-99-6", "cn_name": "2-\u6c1f\u82c4\u80fa", "en_name": ["2-Fluorobenzylamine", "Benzenemethanamine, 2-fluoro-", "Benzylamine, o-fluoro-", "2-Fluorobenzenemethanamine", "o-Fluorobenzylamine", "2-Fluorobenzylamine", "((2-Fluorophenyl)methyl)amine", "NSC 158270", "(2-Fluorophenyl)methanamine", "1-(2-Fluorophenyl)methanamine"], "SMILES": "C(N)C1=C(F)C=CC=C1", "physical_data": {"Molecular Weight": "125.14", "Molecular Formula": "C7H8FN", "Boiling Point": "73-75 \u00b0C @ Press: 13 Torr", "Melting Point": "245-246 \u00b0C"}}