{"cas_no": "89-95-2", "cn_name": "\u90bb\u7532\u57fa\u82c4\u9187", "en_name": ["2-Methylbenzyl alcohol", "Benzenemethanol, 2-methyl-", "Benzyl alcohol, o-methyl-", "2-Methylbenzenemethanol", "o-Methylbenzyl alcohol", "o-Tolyl alcohol", "2-Methylbenzyl alcohol", "o-Tolualcohol", "\u03b1-Hydroxy-o-xylene", "o-Tolylmethanol", "NSC 91", "(2-Tolyl)methanol", "(2-Methylphenyl)methanol", "2-(Methyl)-1-(hydroxymethyl)benzene"], "SMILES": "C(O)C1=C(C)C=CC=C1", "physical_data": {"Molecular Weight": "122.16", "Molecular Formula": "C8H10O", "Boiling Point": "224 \u00b0C", "Melting Point": "38 \u00b0C", "Density": "1.02189 g/cm\u00b3 @ Temp: 19.8 \u00b0C"}}