{"cas_no": "89-93-0", "cn_name": "2-\u7532\u57fa\u82c4\u80fa", "en_name": ["2-Methylbenzylamine", "Benzenemethanamine, 2-methyl-", "Benzylamine, o-methyl-", "2-Methylbenzenemethanamine", "o-Methylbenzylamine", "2-Methylbenzylamine", "o-Xylylamine", "((2-Methylphenyl)methyl)amine", "NSC 30466", "(2-Methylphenyl)methanamine", "o-Tolylmethanamine", "1-(2-Methylphenyl)methanamine"], "SMILES": "C(N)C1=C(C)C=CC=C1", "physical_data": {"Molecular Weight": "121.18", "Molecular Formula": "C8H11N", "Boiling Point": "206 \u00b0C", "Melting Point": "-30 \u00b0C"}}