{"cas_no": "89-91-8", "cn_name": "\u4e8c\u7532\u6c27\u57fa\u4e59\u9178\u7532\u916f", "en_name": ["Methyl dimethoxyacetate", "Acetic acid, 2,2-dimethoxy-, methyl ester", "Glyoxylic acid, methyl ester, 2-(dimethyl acetal)", "Acetic acid, dimethoxy-, methyl ester", "Glyoxylic acid, methyl ester, dimethyl acetal", "Methyl dimethoxyacetate", "Dimethoxyacetic acid methyl ester", "Methyl 2,2-dimethoxyacetate", "Methyl glyoxylate dimethyl acetal", "NSC 27791", "2,2-Dimethoxyacetic acid methyl ester"], "SMILES": "C(C(OC)=O)(OC)OC", "physical_data": {"Molecular Weight": "134.13", "Molecular Formula": "C5H10O4", "Boiling Point": "61-64 \u00b0C @ Press: 12 Torr"}}