{"cas_no": "890-98-2", "cn_name": "DL-\u6241\u6843\u9178\u82c4\u916f", "en_name": ["Benzyl mandelate", "Benzeneacetic acid, \u03b1-hydroxy-, phenylmethyl ester", "Mandelic acid, benzyl ester", "Benzyl mandelate", "Phenylglycolic acid benzyl ester", "Benzylin", "Spasmolyt", "DL-Mandelic acid benzyl ester", "(\u00b1)-Benzyl mandelate", "NSC 9522", "Diphenylmethyl mandelate", "(+/-)-(Phenyl)methyl 2-hydroxy-2-phenylacetate"], "SMILES": "C(C(OCC1=CC=CC=C1)=O)(O)C2=CC=CC=C2", "physical_data": {"Molecular Weight": "242.27", "Molecular Formula": "C15H14O3", "Melting Point": "93 \u00b0C"}}