{"cas_no": "890-38-0", "cn_name": "2'-\u8131\u6c27\u808c\u82f7", "en_name": ["Deoxyinosine", "Inosine, 2\u2032-deoxy-", "2\u2032-Deoxyinosine", "Hypoxanthine, 9-(2-deoxy-\u03b2-D-erythro-pentofuranosyl)-", "Deoxyinosine", "9-(2-Deoxy-\u03b2-D-erythro-pentofuranosyl)-1,9-dihydro-6H-purin-6-one", "6H-Purin-6-one, 9-(2-deoxy-\u03b2-D-erythro-pentofuranosyl)-1,9-dihydro-", "Hypoxanthine deoxyriboside"], "SMILES": "O=C1C2=C(N(C=N2)C3OC(CO)C(O)C3)NC=N1", "physical_data": {"Molecular Weight": "252.23", "Molecular Formula": "C10H12N4O4", "Melting Point": "&gt;250 \u00b0C (decomp)"}}