{"cas_no": "890652-03-6", "cn_name": "1-(4-\u6c1f\u82ef\u57fa)\u5421\u5511-4-\u7532\u919b", "en_name": ["1-(4-Fluorophenyl)-1H-pyrazole-4-carboxaldehyde", "1H-Pyrazole-4-carboxaldehyde, 1-(4-fluorophenyl)-", "1-(4-Fluorophenyl)-1H-pyrazole-4-carboxaldehyde", "1-(4-Fluorophenyl)pyrazole-4-carboxaldehyde", "1-(4-Fluorophenyl)-1H-pyrazole-4-carbaldehyde", "1-(4-Fluorophenyl)pyrazole-4-carbaldehyde"], "SMILES": "C(=O)C1=CN(N=C1)C2=CC=C(F)C=C2", "physical_data": {"Molecular Weight": "190.17", "Molecular Formula": "C10H7FN2O", "Melting Point": "120-122 \u00b0C"}}