{"cas_no": "890707-28-5", "cn_name": "2-\u6c28\u57fa-5-\u6c2f-N,3-\u4e8c\u7532\u57fa\u82ef\u7532\u9170\u80fa", "en_name": ["2-Amino-5-chloro-N,3-dimethylbenzamide", "Benzamide, 2-amino-5-chloro-N,3-dimethyl-", "2-Amino-5-chloro-N,3-dimethylbenzamide", "2-Amino-5-chloro-N-methyl-3-methylbenzamide"], "SMILES": "C(NC)(=O)C1=C(N)C(C)=CC(Cl)=C1", "physical_data": {"Molecular Weight": "198.65", "Molecular Formula": "C9H11ClN2O", "Melting Point": "130-132 \u00b0C"}}