{"cas_no": "89088-56-2", "cn_name": "3-\u6c28\u57fa-1-\u7532\u57fa\u5421\u5511-5-\u7fa7\u9178\u7532\u916f", "en_name": ["5-Amino-2-methyl-2H-pyrazole-3-carboxylic acid methyl ester", "1H-Pyrazole-5-carboxylic acid, 3-amino-1-methyl-, methyl ester", "5-Amino-2-methyl-2H-pyrazole-3-carboxylic acid methyl ester", "3-Amino-1-methyl-1H-pyrazole-5-carboxylic acid methyl ester", "Methyl 3-amino-1-methyl-1H-pyrazole-5-carboxylate"], "SMILES": "C(OC)(=O)C1=CC(N)=NN1C", "physical_data": {"Molecular Weight": "155.15", "Molecular Formula": "C6H9N3O2", "Melting Point": "112-113 \u00b0C"}}