{"cas_no": "89100-78-7", "cn_name": "4-(\u53cd\u5f0f-4-\u4e59\u57fa\u73af\u5df1\u57fa)\u82ef\u915a", "en_name": ["4-(trans-4-Ethylcyclohexyl)phenol", "Phenol, 4-(trans-4-ethylcyclohexyl)-", "Phenol, 4-(4-ethylcyclohexyl)-, trans-", "4-(trans-4-Ethylcyclohexyl)phenol"], "SMILES": "C(C)C1CCC(CC1)C2=CC=C(O)C=C2", "physical_data": {"Molecular Weight": "204.31", "Molecular Formula": "C14H20O", "Melting Point": "127-129 \u00b0C"}}