{"cas_no": "89140-32-9", "cn_name": "Sodium dihydrogen phosphate", "en_name": ["Monosodium phosphate", "Phosphoric acid, sodium salt (1:1)", "Phosphoric acid, monosodium salt", "Monosodium phosphate", "Sodium phosphate (Na(H2PO4))", "Monobasic sodium phosphate", "Dihydrogen sodium phosphate", "Sodium dihydrogen orthophosphate", "Sodium phosphate, monobasic", "Sodium dihydrogen monophosphate", "Monosodium dihydrogen orthophosphate", "Sodium monobasic phosphate (NaH2PO4)", "Sodium primary phosphate", "Monosodium hydrogen phosphate", "Sodium dihydrogen phosphate (NaH2PO4)", "Sodium dihydrogen phosphate", "Sodium hydrogen phosphate (NaH2PO4)", "Monobasic sodium phosphate (NaH2PO4)", "Dihydrogen monosodium phosphate", "Sodium orthophosphate monobasic", "Sodium monobasic phosphate", "S 3139", "MSP 2040"], "SMILES": "P(=O)(O)(O)O.[Na]", "physical_data": {"Molecular Weight": "", "Molecular Formula": "H3O4P.Na", "Melting Point": "60 \u00b0C"}}