{"cas_no": "89179-62-4", "cn_name": "1-\u7532\u57fa-1H-\u5421\u5511-3-\u7532\u9170\u80fa", "en_name": ["1-Methyl-1H-pyrazole-3-carboxamide", "1H-Pyrazole-3-carboxamide, 1-methyl-", "Pyrazole-3-carboxamide, 1-methyl-", "1-Methyl-1H-pyrazole-3-carboxamide", "1-Methylpyrazole-3-carboxamide"], "SMILES": "C(N)(=O)C1=NN(C)C=C1", "physical_data": {"Molecular Weight": "125.13", "Molecular Formula": "C5H7N3O", "Melting Point": "139-141 \u00b0C"}}