{"cas_no": "89193-16-8", "cn_name": "5-\u7532\u57fa-1-\u82ef\u57fa-1H-\u5421\u5511-4-\u7532\u9178\u4e59\u916f", "en_name": ["Ethyl 5-methyl-1-phenyl-1H-pyrazole-4-carboxylate", "1H-Pyrazole-4-carboxylic acid, 5-methyl-1-phenyl-, ethyl ester", "Pyrazole-4-carboxylic acid, 5-methyl-1-phenyl-, ethyl ester", "Ethyl 5-methyl-1-phenyl-1H-pyrazole-4-carboxylate", "NSC 85879", "Ethyl 5-methyl-1-phenylpyrazole-4-carboxylate", "5-Methyl-1-phenyl-1H-pyrazole-4-carboxylic acid ethyl ester", "5-Methyl-1-phenylpyrazole-4-carboxylic acid ethyl ester"], "SMILES": "CC=1N(N=CC1C(OCC)=O)C2=CC=CC=C2", "physical_data": {"Molecular Weight": "230.26", "Molecular Formula": "C13H14N2O2", "Melting Point": "55-56 \u00b0C"}}