{"cas_no": "892-21-7", "cn_name": "3-\u785d\u57fa\u8367\u84bd", "en_name": ["3-Nitrofluoranthene", "Fluoranthene, 3-nitro-", "3-Nitrofluoranthene", "4-Nitrofluoranthene", "NSC 57468"], "SMILES": "N(=O)(=O)C1=C2C3=C(C=4C(C3=CC=C2)=CC=CC4)C=C1", "physical_data": {"Molecular Weight": "247.25", "Molecular Formula": "C16H9NO2", "Melting Point": "162-168 \u00b0C (decomp)"}}