{"cas_no": "892-20-6", "cn_name": "\u4e09\u82ef\u57fa\u9521\u5316\u6c22", "en_name": ["Triphenylstannane", "Stannane, triphenyl-", "Tin, triphenyl-, hydride", "Triphenylstannane", "Triphenyltin hydride", "Triphenylstannyl hydride"], "SMILES": "[SnH](C1=CC=CC=C1)(C2=CC=CC=C2)C3=CC=CC=C3", "physical_data": {"Molecular Weight": "351.03", "Molecular Formula": "C18H16Sn", "Boiling Point": "165 \u00b0C @ Press: 0.3 Torr", "Melting Point": "26-28 \u00b0C", "Density": "1.374 g/cm\u00b3"}}