{"cas_no": "892-48-8", "cn_name": "5'-\u6c2f-5'-\u8131\u6c27\u817a\u82f7", "en_name": ["5\u2032-Chloro-5\u2032-deoxyadenosine", "Adenosine, 5\u2032-chloro-5\u2032-deoxy-", "5\u2032-Chloro-5\u2032-deoxyadenosine", "5\u2032-Deoxy-5\u2032-chloroadenosine"], "SMILES": "OC1C(N2C=3C(N=C2)=C(N)N=CN3)OC(CCl)C1O", "physical_data": {"Molecular Weight": "285.69", "Molecular Formula": "C10H12ClN5O3", "Melting Point": "78-85 \u00b0C"}}