{"cas_no": "89226-12-0", "cn_name": "L-\u53d4\u4e01\u57fa-\u4eae\u6c28\u9178 N-\u7532\u6c28\u9178", "en_name": ["(2S)-2-Amino-N,3,3-trimethylbutanamide", "Butanamide, 2-amino-N,3,3-trimethyl-, (2S)-", "Butanamide, 2-amino-N,3,3-trimethyl-, (S)-", "(2S)-2-Amino-N,3,3-trimethylbutanamide", "S-tert-Leucine N-methylamide", "L-tert-Leucine-N-methylamide", "L-tert-Leucine methylamide", "(S)-2-Amino-N-methyl-3,3-dimethylbutanamide"], "SMILES": "C(C(C)(C)C)(C(NC)=O)N", "physical_data": {"Molecular Weight": "144.21", "Molecular Formula": "C7H16N2O", "Melting Point": "121-123 \u00b0C"}}