{"cas_no": "89226-13-1", "cn_name": "2-\u6c28\u57fa-2-\u786b\u4ee3\u4e59\u57fa\u6c28\u57fa\u7532\u9178\u53d4\u4e01\u916f", "en_name": ["1,1-Dimethylethyl N-(2-amino-2-thioxoethyl)carbamate", "Carbamic acid, N-(2-amino-2-thioxoethyl)-, 1,1-dimethylethyl ester", "Carbamic acid, (2-amino-2-thioxoethyl)-, 1,1-dimethylethyl ester", "1,1-Dimethylethyl N-(2-amino-2-thioxoethyl)carbamate", "2-(tert-Butylcarbamoyl)thioacetamide", "N-tert-Butoxycarbonylglycinethioamide", "tert-Butyl (2-amino-2-thioxoethyl)carbamate", "[(Thiocarbamoyl)methyl]carbamic acid tert-butyl ester"], "SMILES": "O(C(NCC(N)=S)=O)C(C)(C)C", "physical_data": {"Molecular Weight": "190.26", "Molecular Formula": "C7H14N2O2S", "Melting Point": "125-127 \u00b0C"}}