{"cas_no": "89269-64-7", "cn_name": "\u5627\u83cc\u8159", "en_name": ["Ferimzone", "Ethanone, 1-(2-methylphenyl)-, 2-(4,6-dimethyl-2-pyrimidinyl)hydrazone, (1Z)-", "2(1H)-Pyrimidinone, 4,6-dimethyl-, [1-(2-methylphenyl)ethylidene]hydrazone, (Z)-", "2(1H)-Pyrimidinone, 4,6-dimethyl-, (2Z)-[1-(2-methylphenyl)ethylidene]hydrazone", "Meferimzone", "Ferimzone", "TF 164", "(Z)-Ferimzone"], "SMILES": "C(=NNC=1N=C(C)C=C(C)N1)(C)C2=C(C)C=CC=C2", "physical_data": {"Molecular Weight": "254.33", "Molecular Formula": "C15H18N4", "Melting Point": "175.5 \u00b0C"}}