{"cas_no": "89260-46-8", "cn_name": "3-(1H-3-\u5421\u5511\u57fa)\u82ef\u80fa", "en_name": ["3-(1H-Pyrazol-3-yl)benzenamine", "Benzenamine, 3-(1H-pyrazol-3-yl)-", "3-(1H-Pyrazol-3-yl)benzenamine", "3-(3-Aminophenyl)pyrazole", "3-(3-Aminophenyl)-1H-pyrazole", "3-(1H-Pyrazol-3-yl)aniline"], "SMILES": "NC=1C=C(C=CC1)C=2C=CNN2", "physical_data": {"Molecular Weight": "159.19", "Molecular Formula": "C9H9N3", "Melting Point": "115-117 \u00b0C"}}