{"cas_no": "89285-03-0", "cn_name": "[(4-\u6c28\u57fa-2-\u7532\u57fa-5-\u5627\u5576)\u7532\u57fa]\u4e8c\u786b\u4ee3\u6c28\u57fa\u7532\u9178\u76d0(\u6216\u916f)", "en_name": ["Carbamodithioic acid, [(4-amino-2-methyl-5-pyrimidinyl)methyl]-, 1-[2-(acetyloxy)ethyl]-2-oxopropyl ester", "Carbamodithioic acid, [(4-amino-2-methyl-5-pyrimidinyl)methyl]-, 1-[2-(acetyloxy)ethyl]-2-oxopropyl ester", "1-[2-(Acetoxy)ethyl]-2-oxopropyl [(4-amino-2-methyl-5-pyrimidinyl)methyl]dithiocarbamate"], "SMILES": "C(NC(SC(CCOC(C)=O)C(C)=O)=S)C=1C(N)=NC(C)=NC1", "physical_data": {"Molecular Weight": "356.46", "Molecular Formula": "C14H20N4O3S2", "Melting Point": "250 \u00b0C (decomp)"}}