{"cas_no": "89284-39-9", "cn_name": "3-\u6c28\u57fa-4,5-\u4e8c\u6c2f\u5421\u5576", "en_name": ["4,5-Dichloro-3-pyridinamine", "3-Pyridinamine, 4,5-dichloro-", "Pyridine, 3-amino-4,5-dichloro-", "4,5-Dichloro-3-pyridinamine", "3-Amino-4,5-dichloropyridine"], "SMILES": "ClC=1C(Cl)=CN=CC1N", "physical_data": {"Molecular Weight": "163.00", "Molecular Formula": "C5H4Cl2N2", "Melting Point": "108 \u00b0C"}}