{"cas_no": "893-33-4", "cn_name": "4,4,4-\u4e09\u6c1f-1-2-\u8418-1,3-\u4e01\u70f7\u4e8c\u916e", "en_name": ["4,4,4-Trifluoro-1-(2-naphthyl)-1,3-butanedione", "1,3-Butanedione, 4,4,4-trifluoro-1-(2-naphthalenyl)-", "1,3-Butanedione, 4,4,4-trifluoro-1-(2-naphthyl)-", "4,4,4-Trifluoro-1-(2-naphthalenyl)-1,3-butanedione", "4,4,4-Trifluoro-1-(2-naphthyl)-1,3-butanedione", "2-Naphthoyltrifluoroacetone", "\u03b2-Naphthoyltrifluoroacetone", "4,4,4-Trifluoro-1-(2\u2032-naphthyl)-1,3-butanedione", "1-(2-Naphthoyl)-3,3,3-trifluoroacetone", "NSC 42790", "4-(2-Naphthyl)-1,1,1-trifluoro-2,4-butanedione", "1-(2-Naphthyl)-4,4,4-trifluoro-1,3-butanedione", "4,4\u2032,4\u2032\u2032-Trifluoro-1-(naphth-2-yl)-1,3-butanedione", "4-(2-Naphthalenyl)-1,1,1-Trifluorobutane-2,4-dione", "4,4,4-Trifluoro-1-(2-naphthyl)-1,4-butanedione", "4,4,4-Trifluoro-1-(naphthalen-2-yl)-1,4-butanedione", "1-(2-Naphthalenyl)-4,4,4-trifluoro-1,3-butanedione"], "SMILES": "C(CC(C(F)(F)F)=O)(=O)C1=CC2=C(C=C1)C=CC=C2", "physical_data": {"Molecular Weight": "266.22", "Molecular Formula": "C14H9F3O2", "Melting Point": "75 \u00b0C"}}