{"cas_no": "89331-94-2", "cn_name": "2-\u82ef\u6c28\u57fa-3-\u7532\u57fa-6-\u4e8c\u4e01\u6c28\u57fa\u8367\u70f7", "en_name": ["6\u2032-(Dibutylamino)-3\u2032-methyl-2\u2032-(phenylamino)spiro[isobenzofuran-1(3H),9\u2032-[9H]xanthen]-3-one", "Spiro[isobenzofuran-1(3H),9\u2032-[9H]xanthen]-3-one, 6\u2032-(dibutylamino)-3\u2032-methyl-2\u2032-(phenylamino)-", "6\u2032-(Dibutylamino)-3\u2032-methyl-2\u2032-(phenylamino)spiro[isobenzofuran-1(3H),9\u2032-[9H]xanthen]-3-one", "3-Di-n-butylamino-6-methyl-7-anilinofluoran", "3\u2032-(Dibutylamino)-6\u2032-methyl-7\u2032-anilinofluoran", "7\u2032-Anilino-3\u2032-(dibutylamino)-6\u2032-methylfluoran", "ODB 2", "7-Anilino-3-(dibutylamino)-6-methylfluoran", "3-Dibutylamino-6-methyl-7-phenylaminofluoran", "2-Anilino-3-methyl-6-(di-n-butylamino)fluoran", "3-Dibutylamino-6-methyl-7-anilinofluoran", "2-Anilino-6-di-n-butylamino-3-methylfluoran", "H 638", "2-Anilino-6-dibutylamino-3-methylfluoran", "2-Anilino-3-methyl-6-(dibutylamino)fluoran", "Copikem 34 Black", "Copikem 34", "2\u2032-Anilino-3\u2032-methyl-6\u2032-(dibutylamino)fluoran", "H 272", "BK 400", "Pergascript Black 2C", "2-Phenylamino-3-methyl-6-(di-n-butylamino)fluorane", "Wincon 2", "Black 400", "CK 68", "Chameleon Black 2", "2\u2032-Anilino-6\u2032-(dibutylamino)-3\u2032-methylspiro[2-benzofuran-3,9\u2032-xanthene]-1-one"], "SMILES": "O=C1OC2(C=3C(OC=4C2=CC=C(N(CCCC)CCCC)C4)=CC(C)=C(NC5=CC=CC=C5)C3)C=6C1=CC=CC6", "physical_data": {"Molecular Weight": "532.67", "Molecular Formula": "C35H36N2O3", "Melting Point": "181.5-183.5 \u00b0C"}}