{"cas_no": "89365-50-4", "cn_name": "\u6c99\u7f8e\u7279\u7f57", "en_name": ["Salmeterol", "1,3-Benzenedimethanol, 4-hydroxy-\u03b11-[[[6-(4-phenylbutoxy)hexyl]amino]methyl]-", "1,3-Benzenedimethanol, 4-hydroxy-\u03b11-[[[6-(4-phenylbutoxy)hexyl]amino]methyl]-, (\u00b1)-", "4-Hydroxy-\u03b11-[[[6-(4-phenylbutoxy)hexyl]amino]methyl]-1,3-benzenedimethanol", "Salmeterol", "GR 33343X", "2-Hydroxymethyl-4-[1-hydroxy-2-[6-(4-phenyl-butoxy)-hexylamino]-ethyl]-phenol", "2-(Hydroxymethyl)-4-[1-hydroxy-2-[6-(4-phenylbutoxy)hexylamino]ethyl]phenol"], "SMILES": "C(CNCCCCCCOCCCCC1=CC=CC=C1)(O)C2=CC(CO)=C(O)C=C2", "physical_data": {"Molecular Weight": "415.57", "Molecular Formula": "C25H37NO4", "Melting Point": "75.5-76.5 \u00b0C"}}