{"cas_no": "89371-37-9", "cn_name": "\u54aa\u8fbe\u666e\u5229", "en_name": ["Imidapril", "4-Imidazolidinecarboxylic acid, 3-[(2S)-2-[[(1S)-1-(ethoxycarbonyl)-3-phenylpropyl]amino]-1-oxopropyl]-1-methyl-2-oxo-, (4S)-", "4-Imidazolidinecarboxylic acid, 3-[2-[[1-(ethoxycarbonyl)-3-phenylpropyl]amino]-1-oxopropyl]-1-methyl-2-oxo-, [4S-[3[R*(R*)],4R*]]-", "(4S)-3-[(2S)-2-[[(1S)-1-(Ethoxycarbonyl)-3-phenylpropyl]amino]-1-oxopropyl]-1-methyl-2-oxo-4-imidazolidinecarboxylic acid", "Imidapril"], "SMILES": "C(C(NC(CCC1=CC=CC=C1)C(OCC)=O)C)(=O)N2C(C(O)=O)CN(C)C2=O", "physical_data": {"Molecular Weight": "405.44", "Molecular Formula": "C20H27N3O6", "Melting Point": "139-140 \u00b0C"}}