{"cas_no": "893736-72-6", "cn_name": "3-(2-\u7f9f\u57fa\u82ef\u57fa)\u82ef\u7532\u9178", "en_name": ["2\u2032-Hydroxy[1,1\u2032-biphenyl]-3-carboxylic acid", "[1,1\u2032-Biphenyl]-3-carboxylic acid, 2\u2032-hydroxy-", "2\u2032-Hydroxy[1,1\u2032-biphenyl]-3-carboxylic acid"], "SMILES": "OC1=C(C2=CC(C(O)=O)=CC=C2)C=CC=C1", "physical_data": {"Molecular Weight": "214.22", "Molecular Formula": "C13H10O3", "Melting Point": "290-291 \u00b0C"}}