{"cas_no": "89371-44-8", "cn_name": "\u54aa\u8fbe\u666e\u5229\u62c9", "en_name": ["Imidaprilat", "4-Imidazolidinecarboxylic acid, 3-[(2S)-2-[[(1S)-1-carboxy-3-phenylpropyl]amino]-1-oxopropyl]-1-methyl-2-oxo-, (4S)-", "4-Imidazolidinecarboxylic acid, 3-[2-[(1-carboxy-3-phenylpropyl)amino]-1-oxopropyl]-1-methyl-2-oxo-, [4S-[3[R*(R*)],4R*]]-", "(4S)-3-[(2S)-2-[[(1S)-1-Carboxy-3-phenylpropyl]amino]-1-oxopropyl]-1-methyl-2-oxo-4-imidazolidinecarboxylic acid", "6366A", "Imidaprilat", "(4S)-3-[(2S)-N-[(1S)-1-Carboxy-3-phenylpropyl]alanyl]-1-methyl-2-oxo-4-imidazolidinecarboxylic acid", "Imidaprilate"], "SMILES": "C(C(NC(CCC1=CC=CC=C1)C(O)=O)C)(=O)N2C(C(O)=O)CN(C)C2=O", "physical_data": {"Molecular Weight": "377.39", "Molecular Formula": "C18H23N3O6", "Melting Point": "239-241 \u00b0C"}}