{"cas_no": "89380-77-8", "cn_name": "3-\u7f9f\u57fa-5-\u785d\u57fa\u567b\u5429-2-\u7fa7\u9178\u7532\u916f", "en_name": ["2-Thiophenecarboxylic acid, 3-hydroxy-5-nitro-, methyl ester", "2-Thiophenecarboxylic acid, 3-hydroxy-5-nitro-, methyl ester", "Methyl 3-hydroxy-5-nitro-2-thiophenecarboxylate", "3-Hydroxy-5-nitro-thiophene-2-carboxylic acid methyl ester"], "SMILES": "C(OC)(=O)C=1SC(N(=O)=O)=CC1O", "physical_data": {"Molecular Weight": "203.17", "Molecular Formula": "C6H5NO5S", "Melting Point": "110-111 \u00b0C"}}