{"cas_no": "89396-94-1", "cn_name": "\u76d0\u9178\u54aa\u8fbe\u666e\u5229", "en_name": ["Imidapril hydrochloride", "4-Imidazolidinecarboxylic acid, 3-[(2S)-2-[[(1S)-1-(ethoxycarbonyl)-3-phenylpropyl]amino]-1-oxopropyl]-1-methyl-2-oxo-, hydrochloride (1:1), (4S)-", "4-Imidazolidinecarboxylic acid, 3-[2-[[1-(ethoxycarbonyl)-3-phenylpropyl]amino]-1-oxopropyl]-1-methyl-2-oxo-, monohydrochloride, [4S-[3[R*(R*)],4R*]]-", "4-Imidazolidinecarboxylic acid, 3-[(2S)-2-[[(1S)-1-(ethoxycarbonyl)-3-phenylpropyl]amino]-1-oxopropyl]-1-methyl-2-oxo-, monohydrochloride, (4S)-", "Imidapril hydrochloride", "TA 6366", "Tanapril", "Novaloc", "Tanatril"], "SMILES": "C(C(NC(CCC1=CC=CC=C1)C(OCC)=O)C)(=O)N2C(C(O)=O)CN(C)C2=O.Cl", "physical_data": {"Molecular Weight": "", "Molecular Formula": "C20H27N3O6.ClH", "Melting Point": "214-216 \u00b0C (decomp)"}}