{"cas_no": "89392-03-0", "cn_name": "4,6-\u4e8c\u7532\u6c27\u57fa-2-(\u82ef\u6c27\u57fa\u7fb0\u57fa)\u6c28\u57fa\u5627\u5576", "en_name": ["Carbamic acid, N-(4,6-dimethoxy-2-pyrimidinyl)-, phenyl ester", "Carbamic acid, N-(4,6-dimethoxy-2-pyrimidinyl)-, phenyl ester", "Carbamic acid, (4,6-dimethoxy-2-pyrimidinyl)-, phenyl ester", "Phenyl N-(4,6-dimethoxypyrimidin-2-yl)carbamate", "Phenyl (4,6-dimethoxy-2-pyrimidinyl)carbamate", "4,6-Dimethoxy-2-(phenoxycarbonylamino)pyrimidine", "2-Phenoxycarbonylamino-4,6-dimethoxypyrimidine", "N-(4,6-Dimethoxypyrimidin-2-yl)carbamic acid phenyl ester", "(4,6-Dimethoxy-pyrimidin-2-yl)-carbamic acid phenyl ester"], "SMILES": "N(C(OC1=CC=CC=C1)=O)C=2N=C(OC)C=C(OC)N2", "physical_data": {"Molecular Weight": "275.26", "Molecular Formula": "C13H13N3O4", "Melting Point": "119 \u00b0C"}}