{"cas_no": "894-71-3", "cn_name": "\u53bb\u7532\u66ff\u6797", "en_name": ["Nortriptyline hydrochloride", "1-Propanamine, 3-(10,11-dihydro-5H-dibenzo[a,d]cyclohepten-5-ylidene)-N-methyl-, hydrochloride (1:1)", "5H-Dibenzo[a,d]cycloheptene-\u03945,\u03b3-propylamine, 10,11-dihydro-N-methyl-, hydrochloride", "1-Propanamine, 3-(10,11-dihydro-5H-dibenzo[a,d]cyclohepten-5-ylidene)-N-methyl-, hydrochloride", "38489", "Aventyl hydrochloride", "Desmethylamitriptyline hydrochloride", "10,11-Dihydro-N-methyl-5H-dibenzo[a,d]cycloheptene-\u03945,\u03b3-propylamine hydrochloride", "5-[3-(Methylamino)propylidene]dibenzo[a,e]cyclohepta[1,5]diene hydrochloride", "5-(3-Methylaminopropylidene)-10,11-dihydro-5H-dibenzo[a,d]cycloheptene hydrochloride", "Noramitriptyline hydrochloride", "Nortriptyline hydrochloride", "Allegron", "Nortrilen", "Psychostyl", "Acetexa", "Noritren", "Altilev", "Pamelor", "Vividyl", "Norzepine", "Sensival", "Norfenazin", "Nortryptilinium hydrochloride"], "SMILES": "C(CCNC)=C1C=2C(CCC=3C1=CC=CC3)=CC=CC2.Cl", "physical_data": {"Molecular Weight": "", "Molecular Formula": "C19H21N.ClH", "Melting Point": "213-215 \u00b0C"}}