{"cas_no": "89402-43-7", "cn_name": "2,3-\u4e8c\u6c1f-5-\u6c2f\u5421\u5576", "en_name": ["5-Chloro-2,3-difluoropyridine", "Pyridine, 5-chloro-2,3-difluoro-", "5-Chloro-2,3-difluoropyridine", "2,3-Difluoro-5-chloropyridine", "3-Chloro-5,6-difluoropyridine"], "SMILES": "FC1=C(F)N=CC(Cl)=C1", "physical_data": {"Molecular Weight": "149.53", "Molecular Formula": "C5H2ClF2N", "Boiling Point": "70-73 \u00b0C @ Press: 85 Torr"}}