{"cas_no": "89402-44-8", "cn_name": "5-\u6eb4-2,3-\u4e8c\u6c1f\u5421\u5576", "en_name": ["5-Bromo-2,3-difluoropyridine", "Pyridine, 5-bromo-2,3-difluoro-", "5-Bromo-2,3-difluoropyridine"], "SMILES": "FC1=C(F)N=CC(Br)=C1", "physical_data": {"Molecular Weight": "193.98", "Molecular Formula": "C5H2BrF2N", "Boiling Point": "175 \u00b0C @ Press: 760 Torr"}}