{"cas_no": "89415-87-2", "cn_name": "1,3-\u4e8c\u6c2f-5-\u7532\u57fa-5-\u4e59\u57fa\u6d77\u56e0", "en_name": ["1,3-Dichloro-5-ethyl-5-methylhydantoin", "2,4-Imidazolidinedione, 1,3-dichloro-5-ethyl-5-methyl-", "Hydantoin, 1,3-dichloro-5-ethyl-5-methyl-", "1,3-Dichloro-5-ethyl-5-methyl-2,4-imidazolidinedione", "1,3-Dichloro-5-ethyl-5-methylhydantoin", "DCMEH"], "SMILES": "C(C)C1(C)C(=O)N(Cl)C(=O)N1Cl", "physical_data": {"Molecular Weight": "211.05", "Molecular Formula": "C6H8Cl2N2O2", "Melting Point": "61-63 \u00b0C"}}