{"cas_no": "89466-18-2", "cn_name": "3-\u6c28\u57fa-2-\u7532\u6c27\u57fa-6-\u6eb4\u5421\u5576", "en_name": ["6-Bromo-2-methoxy-3-pyridinamine", "3-Pyridinamine, 6-bromo-2-methoxy-", "Pyridine, 3-amino-6-bromo-2-methoxy-", "6-Bromo-2-methoxy-3-pyridinamine", "5-Amino-2-bromo-6-methoxypyridine", "3-Amino-6-bromo-2-methoxypyridine", "(6-Bromo-2-methoxypyridin-3-yl)amine"], "SMILES": "O(C)C1=C(N)C=CC(Br)=N1", "physical_data": {"Molecular Weight": "203.04", "Molecular Formula": "C6H7BrN2O", "Melting Point": "78-79 \u00b0C (sublm)"}}