{"cas_no": "89466-17-1", "cn_name": "6-\u6eb4-5-\u7532\u57fa\u5421\u5576-2-\u80fa", "en_name": ["6-Bromo-5-methyl-2-pyridinamine", "2-Pyridinamine, 6-bromo-5-methyl-", "3-Picoline, 6-amino-2-bromo-", "6-Bromo-5-methyl-2-pyridinamine"], "SMILES": "BrC1=C(C)C=CC(N)=N1", "physical_data": {"Molecular Weight": "187.04", "Molecular Formula": "C6H7BrN2", "Melting Point": "96-98 \u00b0C"}}