{"cas_no": "89466-19-3", "cn_name": "5-\u6eb4-2,3-\u4e8c\u7532\u6c27\u57fa\u5421\u55ea", "en_name": ["5-Bromo-2,3-dimethoxypyrazine", "Pyrazine, 5-bromo-2,3-dimethoxy-", "5-Bromo-2,3-dimethoxypyrazine"], "SMILES": "O(C)C=1C(OC)=NC(Br)=CN1", "physical_data": {"Molecular Weight": "219.04", "Molecular Formula": "C6H7BrN2O2", "Melting Point": "54-56 \u00b0C"}}