{"cas_no": "89466-39-7", "cn_name": "2-\u7532\u57fa-4-\u6c2f-6-\u7532\u6c27\u57fa\u5627\u5576", "en_name": ["4-Chloro-6-methoxy-2-methylpyrimidine", "Pyrimidine, 4-chloro-6-methoxy-2-methyl-", "4-Chloro-6-methoxy-2-methylpyrimidine"], "SMILES": "O(C)C=1C=C(Cl)N=C(C)N1", "physical_data": {"Molecular Weight": "158.59", "Molecular Formula": "C6H7ClN2O", "Boiling Point": "77-78 \u00b0C @ Press: 8 Torr"}}