{"cas_no": "89488-30-2", "cn_name": "2-\u7f9f\u57fa-3-\u7532\u57fa-5-\u6eb4\u5421\u5576", "en_name": ["5-Bromo-3-methyl-2(1H)-pyridinone", "2(1H)-Pyridinone, 5-bromo-3-methyl-", "2(1H)-Pyridone, 5-bromo-3-methyl-", "5-Bromo-3-methyl-2(1H)-pyridinone", "5-Bromo-2-hydroxy-3-methylpyridine", "NSC 142314", "5-Bromo-3-methylpyridin-2-ol", "5-Bromo-3-methyl-2-hydroxypyridine", "5-Bromo-3-methylpyridin-2(1H)-one", "5-Bromo-3-methyl-1H-pyridin-2-one"], "SMILES": "CC=1C(=O)NC=C(Br)C1", "physical_data": {"Molecular Weight": "188.02", "Molecular Formula": "C6H6BrNO", "Melting Point": "166-167 \u00b0C"}}