{"cas_no": "89482-00-8", "cn_name": "\u624e\u6258\u5e03\u6d1b\u82ac", "en_name": ["Zaltoprofen", "Dibenzo[b,f]thiepin-2-acetic acid, 10,11-dihydro-\u03b1-methyl-10-oxo-", "10,11-Dihydro-\u03b1-methyl-10-oxodibenzo[b,f]thiepin-2-acetic acid", "CN 100", "Zaltoprofen", "CN 100 (antiphlogistic)", "Soleton", "2-(10,11-Dihydro-10-oxodibenzo[b,f]thiepin-2-yl)propionic acid", "2-(10-Oxo-10,11-dihydrodibenzo[b,f]thiepin-2-yl)propanoic acid"], "SMILES": "C(C(O)=O)(C)C=1C=C2C(SC=3C(C(=O)C2)=CC=CC3)=CC1", "physical_data": {"Molecular Weight": "298.36", "Molecular Formula": "C17H14O3S", "Melting Point": "130-133 \u00b0C"}}