{"cas_no": "89499-43-4", "cn_name": "4-\u6c28\u57fa\u567b\u5429-2-\u7532\u9178\u7532\u916f", "en_name": ["Methyl 4-amino-2-thiophenecarboxylate", "2-Thiophenecarboxylic acid, 4-amino-, methyl ester", "Methyl 4-amino-2-thiophenecarboxylate"], "SMILES": "C(OC)(=O)C1=CC(N)=CS1", "physical_data": {"Molecular Weight": "157.19", "Molecular Formula": "C6H7NO2S", "Melting Point": "82-84 \u00b0C"}}