{"cas_no": "89524-99-2", "cn_name": "2-\u4e59\u9170\u6c28\u57fa-2-\u4e8c\u7532\u6c27\u57fa\u81a6\u9170\u57fa\u4e59\u9178\u7532\u916f", "en_name": ["Methyl 2-(acetylamino)-2-(dimethoxyphosphinyl)acetate", "Acetic acid, 2-(acetylamino)-2-(dimethoxyphosphinyl)-, methyl ester", "Acetic acid, (acetylamino)(dimethoxyphosphinyl)-, methyl ester", "Methyl 2-(acetylamino)-2-(dimethoxyphosphinyl)acetate", "Trimethyl \u03b1-(acetamido)phosphonoacetate", "Methyl \u03b1-(acetylamino)-\u03b1-(dimethoxyphosphoryl)acetate"], "SMILES": "P(C(C(OC)=O)NC(C)=O)(OC)(OC)=O", "physical_data": {"Molecular Weight": "239.16", "Molecular Formula": "C7H14NO6P", "Melting Point": "88.0-88.5 \u00b0C"}}