{"cas_no": "89544-84-3", "cn_name": "1-\u6eb4\u73af\u4e19\u57fa\u7fa7\u9178", "en_name": ["1-Bromocyclopropanecarboxylic acid", "Cyclopropanecarboxylic acid, 1-bromo-", "1-Bromocyclopropanecarboxylic acid", "1-Bromocyclopropane-1-carboxylic acid"], "SMILES": "C(O)(=O)C1(Br)CC1", "physical_data": {"Molecular Weight": "164.99", "Molecular Formula": "C4H5BrO2", "Melting Point": "78 \u00b0C"}}