{"cas_no": "89565-68-4", "cn_name": "\u6258\u70f7\u53f8\u743c", "en_name": ["Tropisetron", "1H-Indole-3-carboxylic acid, (3-endo)-8-methyl-8-azabicyclo[3.2.1]oct-3-yl ester", "1H-Indole-3-carboxylic acid, 8-methyl-8-azabicyclo[3.2.1]oct-3-yl ester, endo-", "Tropisetron", "ICS 205930", "Navoban", "ICS 205-930"], "SMILES": "C(OC1CC2N(C)C(C1)CC2)(=O)C=3C=4C(NC3)=CC=CC4", "physical_data": {"Molecular Weight": "284.35", "Molecular Formula": "C17H20N2O2", "Melting Point": "201-202 \u00b0C"}}