{"cas_no": "896-33-3", "cn_name": "\u4e59\u57fa\u4e09\u82ef\u57fa\u6c2f\u5316", "en_name": ["Ethyltriphenylphosphonium chloride", "Phosphonium, ethyltriphenyl-, chloride (1:1)", "Phosphonium, ethyltriphenyl-, chloride", "Ethyltriphenylphosphonium chloride", "Triphenylethylphosphonium chloride"], "SMILES": "[P+](CC)(C1=CC=CC=C1)(C2=CC=CC=C2)C3=CC=CC=C3.[Cl-]", "physical_data": {"Molecular Weight": "", "Molecular Formula": "C20H20P.Cl", "Melting Point": "234-236 \u00b0C"}}