{"cas_no": "89604-92-2", "cn_name": "\u5934\u5b62\u4ed6\u5576\u4fa7\u94fe\u9178\u6d3b\u6027\u916f", "en_name": ["1,1-Dimethylethyl 2-[[(Z)-[1-(2-amino-4-thiazolyl)-2-(2-benzothiazolylthio)-2-oxoethylidene]amino]oxy]-2-methylpropanoate", "Propanoic acid, 2-[[(Z)-[1-(2-amino-4-thiazolyl)-2-(2-benzothiazolylthio)-2-oxoethylidene]amino]oxy]-2-methyl-, 1,1-dimethylethyl ester", "Propanoic acid, 2-[[[1-(2-amino-4-thiazolyl)-2-(2-benzothiazolylthio)-2-oxoethylidene]amino]oxy]-2-methyl-, 1,1-dimethylethyl ester, (Z)-", "1,1-Dimethylethyl 2-[[(Z)-[1-(2-amino-4-thiazolyl)-2-(2-benzothiazolylthio)-2-oxoethylidene]amino]oxy]-2-methylpropanoate"], "SMILES": "C(C(SC1=NC=2C(S1)=CC=CC2)=O)(=NOC(C(OC(C)(C)C)=O)(C)C)C=3N=C(N)SC3", "physical_data": {"Molecular Weight": "478.61", "Molecular Formula": "C20H22N4O4S3", "Melting Point": "139-140 \u00b0C"}}