{"cas_no": "89604-91-1", "cn_name": "(Z)-2-(5-\u6c28\u57fa-1,2,4-\u567b\u4e8c\u5511-3-\u57fa)-2-\u7532\u6c27\u4e9a\u6c28\u57fa\u786b\u4ee3\u4e59\u9178 (S)-2-\u82ef\u5e76\u567b\u5511\u916f", "en_name": ["S-2-Benzothiazolyl (\u03b1Z)-5-amino-\u03b1-(methoxyimino)-1,2,4-thiadiazole-3-ethanethioate", "1,2,4-Thiadiazole-3-ethanethioic acid, 5-amino-\u03b1-(methoxyimino)-, S-2-benzothiazolyl ester, (\u03b1Z)-", "1,2,4-Thiadiazole-3-ethanethioic acid, 5-amino-\u03b1-(methoxyimino)-, S-2-benzothiazolyl ester, (Z)-", "S-2-Benzothiazolyl (\u03b1Z)-5-amino-\u03b1-(methoxyimino)-1,2,4-thiadiazole-3-ethanethioate"], "SMILES": "S(C(C(=NOC)C1=NSC(N)=N1)=O)C2=NC=3C(S2)=CC=CC3", "physical_data": {"Molecular Weight": "351.43", "Molecular Formula": "C12H9N5O2S3", "Melting Point": "164-165 \u00b0C"}}