{"cas_no": "89640-55-1", "cn_name": "3-\u7898-4-\u7532\u6c27\u57fa\u5421\u5576", "en_name": ["3-Iodo-4-methoxypyridine", "Pyridine, 3-iodo-4-methoxy-", "3-Iodo-4-methoxypyridine"], "SMILES": "O(C)C=1C(I)=CN=CC1", "physical_data": {"Molecular Weight": "235.02", "Molecular Formula": "C6H6INO", "Melting Point": "78 \u00b0C"}}