{"cas_no": "89642-50-2", "cn_name": "2-\u785d\u57fa-5-\u6eb4\u82ef\u8148", "en_name": ["5-Bromo-2-nitrobenzonitrile", "Benzonitrile, 5-bromo-2-nitro-", "5-Bromo-2-nitrobenzonitrile", "NSC 263787"], "SMILES": "C(#N)C1=C(N(=O)=O)C=CC(Br)=C1", "physical_data": {"Molecular Weight": "227.01", "Molecular Formula": "C7H3BrN2O2", "Melting Point": "115-117 \u00b0C"}}