{"cas_no": "89694-48-4", "cn_name": "5-\u6c2f-2-\u7532\u6c27\u57fa\u82ef\u787c\u9178", "en_name": ["5-Chloro-2-methoxyphenylboronic acid", "Boronic acid, B-(5-chloro-2-methoxyphenyl)-", "Benzeneboronic acid, 5-chloro-2-methoxy-", "Boronic acid, (5-chloro-2-methoxyphenyl)-", "B-(5-Chloro-2-methoxyphenyl)boronic acid", "5-Chloro-2-methoxyphenylboronic acid", "2-Methoxy-5-chlorophenylboronic acid", "3-Chloro-6-methoxyphenylboronic acid", "[5-Chloro-2-(methyloxy)phenyl]boronic acid"], "SMILES": "B(O)(O)C1=C(OC)C=CC(Cl)=C1", "physical_data": {"Molecular Weight": "186.40", "Molecular Formula": "C7H8BClO3", "Melting Point": "141-142 \u00b0C"}}