{"cas_no": "89694-47-3", "cn_name": "4-\u6c2f-3-\u7532\u6c27\u57fa\u82ef\u787c\u9178", "en_name": ["B-(4-Chloro-3-methoxyphenyl)boronic acid", "Boronic acid, B-(4-chloro-3-methoxyphenyl)-", "Benzeneboronic acid, 4-chloro-3-methoxy-", "Boronic acid, (4-chloro-3-methoxyphenyl)-", "B-(4-Chloro-3-methoxyphenyl)boronic acid", "4-Chloro-3-methoxyphenylboronic acid"], "SMILES": "O(C)C1=CC(B(O)O)=CC=C1Cl", "physical_data": {"Molecular Weight": "186.40", "Molecular Formula": "C7H8BClO3", "Melting Point": "146-151 \u00b0C"}}