{"cas_no": "89694-45-1", "cn_name": "5-\u6eb4-2-\u7532\u6c27\u57fa\u82ef\u57fa\u787c\u9178", "en_name": ["5-Bromo-2-methoxyphenylboronic acid", "Boronic acid, B-(5-bromo-2-methoxyphenyl)-", "Benzeneboronic acid, 5-bromo-2-methoxy-", "Boronic acid, (5-bromo-2-methoxyphenyl)-", "B-(5-Bromo-2-methoxyphenyl)boronic acid", "5-Bromo-2-methoxybenzeneboronic acid", "3-Bromo-6-methoxyphenylboronic acid", "5-Bromo-2-methoxyphenylboronic acid"], "SMILES": "B(O)(O)C1=C(OC)C=CC(Br)=C1", "physical_data": {"Molecular Weight": "230.85", "Molecular Formula": "C7H8BBrO3", "Melting Point": "130.5-131 \u00b0C"}}