{"cas_no": "89694-50-8", "cn_name": "(2-IODO-5-METHOXYPHENYL)BORONIC ACID", "en_name": ["B-(2-Iodo-5-methoxyphenyl)boronic acid", "Boronic acid, B-(2-iodo-5-methoxyphenyl)-", "Benzeneboronic acid, 2-iodo-5-methoxy-", "B-(2-Iodo-5-methoxyphenyl)boronic acid", "(2-Iodo-5-methoxyphenyl)boronic acid", "2-Iodo-5-methoxyphenylboronic acid"], "SMILES": "B(O)(O)C1=CC(OC)=CC=C1I", "physical_data": {"Molecular Weight": "277.85", "Molecular Formula": "C7H8BIO3", "Melting Point": "150 \u00b0C"}}