{"cas_no": "897-78-9", "cn_name": "2,6-\u4e8c\u82ef\u4e9a\u7532\u57fa\u73af\u5df1\u916e", "en_name": ["2,6-Dibenzylidenecyclohexanone", "Cyclohexanone, 2,6-bis(phenylmethylene)-", "Cyclohexanone, 2,6-dibenzylidene-", "2,6-Bis(phenylmethylene)cyclohexanone", "2,6-Dibenzylidenecyclohexanone", "2,6-Dibenzalcyclohexanone", "NSC 2384", "NSC 40618", "2,6-Dibenzylidenecyclohexan-1-one", "2,6-Bis(dibenzylidene)cyclohexanone"], "SMILES": "C(=C1C(=O)C(=CC2=CC=CC=C2)CCC1)C3=CC=CC=C3", "physical_data": {"Molecular Weight": "274.36", "Molecular Formula": "C20H18O", "Boiling Point": "185-195 \u00b0C @ Press: 20 Torr", "Melting Point": "117.5 \u00b0C", "Density": "1.177 g/cm\u00b3"}}