{"cas_no": "897-06-3", "cn_name": "1,4-\u96c4\u70ef\u4e8c\u916e", "en_name": ["Androsta-1,4-diene-3,17-dione", "Androsta-1,4-diene-3,17-dione", "\u03941,4-Androstadiene-3,17-dione", "Androstadienedione", "Androsta-1,4-dien-3,17-dione", "1-Dehydroandrostenedione", "Androstane-1,4-diene-3,17-dione", "NSC 49080", "Boldione", "(+)-Androsta-1,4-diene-3,17-dione", "BDION", "1,4-Androstadiendione", "Boldienone"], "SMILES": "CC12C3C(C4C(C)(CC3)C(=O)CC4)CCC1=CC(=O)C=C2", "physical_data": {"Molecular Weight": "284.39", "Molecular Formula": "C19H24O2", "Melting Point": "139-140 \u00b0C"}}