{"cas_no": "897-55-2", "cn_name": "4-(4-\u4e8c\u7532\u6c28\u57fa\u82ef\u4e59\u70ef\u57fa)\u55b9\u5549", "en_name": ["N,N-Dimethyl-4-[2-(4-quinolinyl)ethenyl]benzenamine", "Benzenamine, N,N-dimethyl-4-[2-(4-quinolinyl)ethenyl]-", "Quinoline, 4-[p-(dimethylamino)styryl]-", "N,N-Dimethyl-4-[2-(4-quinolinyl)ethenyl]benzenamine", "4M20", "4-(p-Dimethylaminostyryl)quinoline", "4-(4-Dimethylaminostyryl)quinoline", "NK 1837", "NSC 4236"], "SMILES": "C(=CC1=CC=C(N(C)C)C=C1)C=2C3=C(N=CC2)C=CC=C3", "physical_data": {"Molecular Weight": "274.36", "Molecular Formula": "C19H18N2", "Melting Point": "141-142 \u00b0C"}}