{"cas_no": "897-15-4", "cn_name": "11-(3-\u4e8c\u7532\u57fa\u6c28\u57fa\u4e19\u4e9a\u57fa)-6,11-\u4e8c\u6c22\u4e8c\u82ef\u5e76[B,E]\u786b\u6742\u5353\u76d0\u9178\u76d0", "en_name": ["Dothiepin hydrochloride", "1-Propanamine, 3-(dibenzo[b,e]thiepin-11(6H)-ylidene)-N,N-dimethyl-, hydrochloride (1:1)", "Dibenzo[b,e]thiepin-\u039411(6H),\u03b3-propylamine, N,N-dimethyl-, hydrochloride", "1-Propanamine, 3-dibenzo[b,e]thiepin-11(6H)-ylidene-N,N-dimethyl-, hydrochloride", "Dibenzo[b,e]thiepin, 1-propanamine deriv.", "11-(3-Dimethylaminopropylidene)-6,11-dihydrodibenzo[b,e]thiepin hydrochloride", "Prothiaden hydrochloride", "Dosulepin chloride", "Dothiepin hydrochloride", "Dosulepin hydrochloride", "Depresym", "Altapin"], "SMILES": "C(CCN(C)C)=C1C=2C(CSC=3C1=CC=CC3)=CC=CC2.Cl", "physical_data": {"Molecular Weight": "", "Molecular Formula": "C19H21NS.ClH", "Melting Point": "218-221 \u00b0C"}}