{"cas_no": "89756-60-5", "cn_name": "\u725b\u78fa\u9170\u80fa\u76d0\u9178\u76d0", "en_name": ["2-Aminoethanesulfonamide hydrochloride", "Ethanesulfonamide, 2-amino-, hydrochloride (1:1)", "Ethanesulfonamide, 2-amino-, monohydrochloride", "Ethanesulfonamide, 2-amino-, hydrochloride", "ST 31-84", "2-Aminoethanesulfonamide hydrochloride", "2-Aminoethane-1-sulfonamide hydrochloride", "2-Amino-ethanesulfonic acid amide", "hydrochloride", "2-Aminoethanesulphonamide hydrochloride"], "SMILES": "C(S(N)(=O)=O)CN.Cl", "physical_data": {"Molecular Weight": "", "Molecular Formula": "C2H8N2O2S.ClH", "Melting Point": "133 \u00b0C"}}