{"cas_no": "89766-91-6", "cn_name": "1-\u7fa7\u57fa-1-\u7532\u57fa\u4e59\u6c27\u57fa\u6c2f\u5316\u94f5", "en_name": ["Propanoic acid, 2-(aminooxy)-2-methyl-, hydrochloride (1:1)", "Propanoic acid, 2-(aminooxy)-2-methyl-, hydrochloride (1:1)", "Propanoic acid, 2-(aminooxy)-2-methyl-, hydrochloride", "Propionic acid, 2-(aminooxy)-2-methyl-, hydrochloride", "1-Carboxy-1-methylethoxyammonium chloride", "2,2-Dimethyl(aminooxy)acetic acid hydrochloride", "2-(Aminooxy)-2-methylpropanoic acid hydrochloride"], "SMILES": "C(C(O)=O)(ON)(C)C.Cl", "physical_data": {"Molecular Weight": "", "Molecular Formula": "C4H9NO3.ClH", "Melting Point": "164-166 \u00b0C"}}