{"cas_no": "89778-27-8", "cn_name": "\u67b8\u6a7c\u9178\u6258\u745e\u7c73\u82ac", "en_name": ["Toremifene citrate", "Ethanamine, 2-[4-[(1Z)-4-chloro-1,2-diphenyl-1-buten-1-yl]phenoxy]-N,N-dimethyl-, 2-hydroxy-1,2,3-propanetricarboxylate (1:1)", "Ethanamine, 2-[4-(4-chloro-1,2-diphenyl-1-butenyl)phenoxy]-N,N-dimethyl-, (Z)-, 2-hydroxy-1,2,3-propanetricarboxylate (1:1)", "Ethanamine, 2-[4-[(1Z)-4-chloro-1,2-diphenyl-1-butenyl]phenoxy]-N,N-dimethyl-, 2-hydroxy-1,2,3-propanetricarboxylate (1:1)", "FC 1157a", "Toremifene citrate", "NK 622", "Fareston", "NSC 613680", "Acapodene", "Z-Toremifene", "GTx 006"], "SMILES": "C(CC(O)=O)(CC(O)=O)(C(O)=O)O.C(=C(CCCl)C1=CC=CC=C1)(C2=CC=C(OCCN(C)C)C=C2)C3=CC=CC=C3", "physical_data": {"Molecular Weight": "", "Molecular Formula": "C26H28ClNO.C6H8O7", "Melting Point": "160-162 \u00b0C"}}