{"cas_no": "89778-26-7", "cn_name": "\u6258\u745e\u7c73\u82ac", "en_name": ["Toremifene", "Ethanamine, 2-[4-[(1Z)-4-chloro-1,2-diphenyl-1-buten-1-yl]phenoxy]-N,N-dimethyl-", "Ethanamine, 2-[4-(4-chloro-1,2-diphenyl-1-butenyl)phenoxy]-N,N-dimethyl-, (Z)-", "Ethanamine, 2-[4-[(1Z)-4-chloro-1,2-diphenyl-1-butenyl]phenoxy]-N,N-dimethyl-", "2-[4-[(1Z)-4-Chloro-1,2-diphenyl-1-buten-1-yl]phenoxy]-N,N-dimethylethanamine", "Toremifene", "Chlortamoxifen"], "SMILES": "C(=C(CCCl)C1=CC=CC=C1)(C2=CC=C(OCCN(C)C)C=C2)C3=CC=CC=C3", "physical_data": {"Molecular Weight": "405.96", "Molecular Formula": "C26H28ClNO", "Melting Point": "108-110 \u00b0C"}}