{"cas_no": "89789-07-1", "cn_name": "\u4ed6\u5511\u5df4\u5766\u4e8c\u82ef\u7532\u916f", "en_name": ["4-Thia-1-azabicyclo[3.2.0]heptane-2-carboxylic acid, 3-methyl-7-oxo-3-(1H-1,2,3-triazol-1-ylmethyl)-, diphenylmethyl ester, 4,4-dioxide, (2S,3S,5R)-", "4-Thia-1-azabicyclo[3.2.0]heptane-2-carboxylic acid, 3-methyl-7-oxo-3-(1H-1,2,3-triazol-1-ylmethyl)-, diphenylmethyl ester, 4,4-dioxide, (2S,3S,5R)-", "4-Thia-1-azabicyclo[3.2.0]heptane-2-carboxylic acid, 3-methyl-7-oxo-3-(1H-1,2,3-triazol-1-ylmethyl)-, diphenylmethyl ester, 4,4-dioxide, [2S-(2\u03b1,3\u03b2,5\u03b1)]-", "1H-1,2,3-Triazole, 4-thia-1-azabicyclo[3.2.0]heptane-2-carboxylic acid deriv.", "Tazobactam diphenylmethyl ester"], "SMILES": "C(OC(C1=CC=CC=C1)C2=CC=CC=C2)(=O)C3N4C(S(=O)(=O)C3(CN5C=CN=N5)C)CC4=O", "physical_data": {"Molecular Weight": "466.51", "Molecular Formula": "C23H22N4O5S", "Melting Point": "20.7-208 \u00b0C"}}