{"cas_no": "89786-04-9", "cn_name": "\u4ed6\u5511\u5df4\u5766\u9178", "en_name": ["Tazobactam", "4-Thia-1-azabicyclo[3.2.0]heptane-2-carboxylic acid, 3-methyl-7-oxo-3-(1H-1,2,3-triazol-1-ylmethyl)-, 4,4-dioxide, (2S,3S,5R)-", "4-Thia-1-azabicyclo[3.2.0]heptane-2-carboxylic acid, 3-methyl-7-oxo-3-(1H-1,2,3-triazol-1-ylmethyl)-, 4,4-dioxide, [2S-(2\u03b1,3\u03b2,5\u03b1)]-", "1H-1,2,3-Triazole, 4-thia-1-azabicyclo[3.2.0]heptane-2-carboxylic acid deriv.", "YTR 830H", "Tazobactam", "CL 298741"], "SMILES": "C(C1(C)C(C(O)=O)N2C(S1(=O)=O)CC2=O)N3C=CN=N3", "physical_data": {"Molecular Weight": "300.29", "Molecular Formula": "C10H12N4O5S", "Melting Point": "181-182 \u00b0C"}}