{"cas_no": "89785-84-2", "cn_name": "\u4ed6\u5511\u5df4\u5766\u94a0", "en_name": ["Tazobactam sodium", "4-Thia-1-azabicyclo[3.2.0]heptane-2-carboxylic acid, 3-methyl-7-oxo-3-(1H-1,2,3-triazol-1-ylmethyl)-, 4,4-dioxide, sodium salt (1:1), (2S,3S,5R)-", "4-Thia-1-azabicyclo[3.2.0]heptane-2-carboxylic acid, 3-methyl-7-oxo-3-(1H-1,2,3-triazol-1-ylmethyl)-, 4,4-dioxide, sodium salt, [2S-(2\u03b1,3\u03b2,5\u03b1)]-", "4-Thia-1-azabicyclo[3.2.0]heptane-2-carboxylic acid, 3-methyl-7-oxo-3-(1H-1,2,3-triazol-1-ylmethyl)-, 4,4-dioxide, sodium salt, (2S,3S,5R)-", "1H-1,2,3-Triazole, 4-thia-1-azabicyclo[3.2.0]heptane-2-carboxylic acid deriv.", "YTR 830", "CL 307579", "Tazobactam sodium"], "SMILES": "C(C1(C)C(C(O)=O)N2C(S1(=O)=O)CC2=O)N3C=CN=N3.[Na]", "physical_data": {"Molecular Weight": "", "Molecular Formula": "C10H12N4O5S.Na", "Melting Point": "&gt;170 \u00b0C (decomp)"}}