{"cas_no": "89795-51-7", "cn_name": "2,1,3-\u82ef\u5e76\u567b\u4e8c\u5511-5-\u7532\u9187", "en_name": ["2,1,3-Benzothiadiazole-5-methanol", "2,1,3-Benzothiadiazole-5-methanol", "2,1,3-Benzothiadiazol-5-ylmethanol"], "SMILES": "C(O)C1=CC=2C(C=C1)=NSN2", "physical_data": {"Molecular Weight": "166.20", "Molecular Formula": "C7H6N2OS", "Melting Point": "53-54 \u00b0C"}}