{"cas_no": "89793-12-4", "cn_name": "2-\u6c2f\u5627\u5576-5-\u7fa7\u9178\u4e59\u916f", "en_name": ["5-Pyrimidinecarboxylic acid, 2-chloro-, ethyl ester", "5-Pyrimidinecarboxylic acid, 2-chloro-, ethyl ester", "2-Chloro-5-(ethoxycarbonyl)pyrimidine", "2-Chloropyrimidine-5-carboxylic acid ethyl ester", "Ethyl 2-chloro-5-pyrimidinecarboxylate"], "SMILES": "C(OCC)(=O)C=1C=NC(Cl)=NC1", "physical_data": {"Molecular Weight": "186.60", "Molecular Formula": "C7H7ClN2O2", "Melting Point": "61 \u00b0C"}}