{"cas_no": "89796-99-6", "cn_name": "\u918b\u6c2f\u82ac\u9178", "en_name": ["Aceclofenac", "Benzeneacetic acid, 2-[(2,6-dichlorophenyl)amino]-, carboxymethyl ester", "Aceclofenac", "Falcol", "Gerbin", "2-[[2-[(2,6-Dichlorophenyl)amino]phenyl]acetoxy]acetic acid", "Airtal", "Tresquim", "Biofenac", "PR 82/3", "Aceclofar", "Bristaflam", "Glycolic acid 2-[o-(2,6-dichloroanilino)phenyl]acetate", "Zerodol", "Hifenac", "Preservex", "[2-[(2,6-Dichlorophenyl)amino]phenyl]acetoxyacetic acid", "Hifenac-TL", "Dolokind", "Acepac", "Flexidol", "Aceclofenac BP", "Aceclo", "Aceclo Plus", "[2-(2,6-Dichloro-phenylamino)-phenyl]-acetic acid carboxymethyl ester", "2-[2-[2-(2,6-Dichloroanilino)phenyl]acetyl]oxyacetic acid"], "SMILES": "N(C1=C(CC(OCC(O)=O)=O)C=CC=C1)C2=C(Cl)C=CC=C2Cl", "physical_data": {"Molecular Weight": "354.18", "Molecular Formula": "C16H13Cl2NO4", "Melting Point": "149-150 \u00b0C"}}