{"cas_no": "89809-64-3", "cn_name": "2-\u6c30\u57fa-5-\u6c2f\u5421\u5576", "en_name": ["5-Chloro-2-pyridinecarbonitrile", "2-Pyridinecarbonitrile, 5-chloro-", "5-Chloro-2-pyridinecarbonitrile", "2-Cyano-5-chloropyridine", "5-Chloro-2-cyanopyridine", "5-Chloropicolinonitrile"], "SMILES": "C(#N)C1=CC=C(Cl)C=N1", "physical_data": {"Molecular Weight": "138.55", "Molecular Formula": "C6H3ClN2", "Boiling Point": "110 \u00b0C @ Press: 3 Torr", "Melting Point": "83-84 \u00b0C"}}