{"cas_no": "898566-17-1", "cn_name": "2-(4-\u6c1f\u82ef\u57fa)-5-[(5-\u7898-2-\u7532\u57fa\u82ef\u57fa)\u7532\u57fa]\u567b\u5429", "en_name": ["2-(4-Fluorophenyl)-5-[(5-iodo-2-methylphenyl)methyl]thiophene", "Thiophene, 2-(4-fluorophenyl)-5-[(5-iodo-2-methylphenyl)methyl]-", "2-(4-Fluorophenyl)-5-[(5-iodo-2-methylphenyl)methyl]thiophene", "2-(4-Fluorophenyl)-5-(5-iodo-2-methylbenzyl)thiophene", "5-(5-Iodo-2-methylbenzyl)-2-(4-fluorophenyl)thiophene", "2-(5-Iodo-2-methylbenzyl)-5-(4-fluorophenyl)thiophene"], "SMILES": "C(C=1SC(=CC1)C2=CC=C(F)C=C2)C3=C(C)C=CC(I)=C3", "physical_data": {"Molecular Weight": "408.27", "Molecular Formula": "C18H14FIS", "Melting Point": "109-110 \u00b0C"}}