{"cas_no": "898562-94-2", "cn_name": "2-[[4-[1-\u7532\u57fa-4-(4-\u5421\u5576\u57fa)-1H-\u5421\u5511-3-\u57fa]\u82ef\u6c27\u57fa]\u7532\u57fa]-\u55b9\u5549", "en_name": ["2-[[4-[1-Methyl-4-(4-pyridinyl)-1H-pyrazol-3-yl]phenoxy]methyl]quinoline", "Quinoline, 2-[[4-[1-methyl-4-(4-pyridinyl)-1H-pyrazol-3-yl]phenoxy]methyl]-", "2-[[4-[1-Methyl-4-(4-pyridinyl)-1H-pyrazol-3-yl]phenoxy]methyl]quinoline", "2-[(4-(1-Methyl-4-(pyridin-4-yl)-1H-pyrazol-3-yl)phenoxy)methyl]quinoline", "MP 10", "PF 2545920", "Mardepodect", "PF 02545920"], "SMILES": "CN1N=C(C(=C1)C=2C=CN=CC2)C3=CC=C(OCC4=NC5=C(C=C4)C=CC=C5)C=C3", "physical_data": {"Molecular Weight": "392.45", "Molecular Formula": "C25H20N4O", "Melting Point": "180-181 \u00b0C"}}