{"cas_no": "89901-03-1", "cn_name": "4'-\u6eb4[1,1'-\u8054\u82ef]-4-\u7532\u9178\u7532\u916f", "en_name": ["Methyl 4\u2032-bromo[1,1\u2032-biphenyl]-4-carboxylate", "[1,1\u2032-Biphenyl]-4-carboxylic acid, 4\u2032-bromo-, methyl ester", "Methyl 4\u2032-bromo[1,1\u2032-biphenyl]-4-carboxylate", "Methyl 4\u2032-bromobiphenyl-4-carboxylate", "4\u2032-Bromobiphenyl-4-carboxylic acid methyl ester", "4\u2032-Bromo-1,1\u2032-biphenyl-4-carboxylic acid methyl ester"], "SMILES": "C(OC)(=O)C1=CC=C(C=C1)C2=CC=C(Br)C=C2", "physical_data": {"Molecular Weight": "291.14", "Molecular Formula": "C14H11BrO2", "Melting Point": "144-146 \u00b0C"}}