{"cas_no": "89943-12-4", "cn_name": "2-\u4e59\u6c27\u57fa-4-\u6c28\u57fa\u5421\u5576", "en_name": ["2-Ethoxy-4-pyridinamine", "4-Pyridinamine, 2-ethoxy-", "Pyridine, 4-amino-2-ethoxy-", "2-Ethoxy-4-pyridinamine", "2-Ethoxy-4-aminopyridine", "4-Amino-2-ethoxypyridine"], "SMILES": "O(CC)C1=CC(N)=CC=N1", "physical_data": {"Molecular Weight": "138.17", "Molecular Formula": "C7H10N2O", "Melting Point": "88-89 \u00b0C"}}