{"cas_no": "89942-59-6", "cn_name": "2-\u4e59\u9170\u57fa\u70df\u9178", "en_name": ["2-Acetyl-3-pyridinecarboxylic acid", "3-Pyridinecarboxylic acid, 2-acetyl-", "Nicotinic acid, 2-acetyl-", "2-Acetyl-3-pyridinecarboxylic acid", "2-Acetylpyridine-3-carboxylic acid", "2-Acetylnicotinic acid"], "SMILES": "C(O)(=O)C1=C(C(C)=O)N=CC=C1", "physical_data": {"Molecular Weight": "165.15", "Molecular Formula": "C8H7NO3", "Melting Point": "126-127 \u00b0C"}}