{"cas_no": "89972-76-9", "cn_name": "4'-(4-\u6eb4\u82ef\u57fa)-2,2':6',2''-\u4e09\u8054\u5421\u5576", "en_name": ["4\u2032-(4-Bromophenyl)-2,2\u2032:6\u2032,2\u2032\u2032-terpyridine", "2,2\u2032:6\u2032,2\u2032\u2032-Terpyridine, 4\u2032-(4-bromophenyl)-", "4\u2032-(4-Bromophenyl)-2,2\u2032:6\u2032,2\u2032\u2032-terpyridine", "4\u2032-p-Bromophenyl-2,2\u2032:6\u2032,2\u2032\u2032-terpyridine", "4\u2032-(4-Bromphenyl)-2,2\u2032:6\u2032,2\u2032\u2032-terpyridine", "4-(4-Bromophenyl)-2,2\u2032:6,2\u2032\u2032-terpyridine"], "SMILES": "BrC1=CC=C(C=2C=C(N=C(C2)C3=CC=CC=N3)C4=CC=CC=N4)C=C1", "physical_data": {"Molecular Weight": "388.26", "Molecular Formula": "C21H14BrN3", "Melting Point": "154-156 \u00b0C"}}