{"cas_no": "89992-70-1", "cn_name": "2-\u6c30\u4e59\u57fa N,N-\u4e8c\u5f02\u4e19\u57fa\u6c2f\u4ee3\u4e9a\u78f7\u9170\u80fa", "en_name": ["2-Cyanoethyl N,N-diisopropylchlorophosphoramidite", "Phosphoramidochloridous acid, N,N-bis(1-methylethyl)-, 2-cyanoethyl ester", "Phosphoramidochloridous acid, bis(1-methylethyl)-, 2-cyanoethyl ester", "Chloro(\u03b2-cyanoethoxy)(diisopropylamino)phosphine", "2-Cyanoethyl N,N-diisopropylchlorophosphoramidite", "\u03b2-Cyanoethyl N,N-diisopropylamidochlorophosphite", "Chloro(2-cyanoethoxy)(diisopropylamino)phosphine", "Chloro(diisopropylamino)-\u03b2-cyanoethoxyphosphine", "(2-Cyanoethoxy)(diisopropylamino)chlorophosphane", "2-Cyanoethyl diisopropylchlorophosphoramidite", "2-Cyanoethyl N,N-diisopropylchlorophosphoroamidite", "(2-Cyanoethoxy)(N,N-diisopropylamino)chlorophosphine", "(2-Cyanoethoxy)(Diisopropylamino)chlorophosphine", "2-Cyanoethyl diisopropylphosphoramidochloridite", "Amidite reagent", "(2-O-Cyanoethyl)(N,N-diisopropylamino)chlorophosphine", "2-Cyanoethyl N,N-diisopropylphosphoramidochloridite", "3-[[(Chloro)(diisopropylamino)phosphanyl]oxy]propanenitrile", "Cyanoethyl-N,N-diisopropylchlorophosphoramidite", "N,N-Diisopropylamino-2-cyanoethoxychlorophosphine", "3-((Chloro(diisopropylamino)phosphino)oxy)propanenitrile"], "SMILES": "N(P(OCCC#N)Cl)(C(C)C)C(C)C", "physical_data": {"Molecular Weight": "236.68", "Molecular Formula": "C9H18ClN2OP", "Boiling Point": "86-90 \u00b0C @ Press: 0.05 Torr"}}