{"cas_no": "90-03-9", "cn_name": "\u6c2f\u5316\u90bb\u7f9f\u57fa\u82ef\u6c5e", "en_name": ["Mercufenol chloride", "Mercury, chloro(2-hydroxyphenyl)-", "Mercury, chloro(o-hydroxyphenyl)-", "Phenol, o-(chloromercuri)-", "Chloro(2-hydroxyphenyl)mercury", "(o-Hydroxyphenyl)mercuric chloride", "o-Mercurihydroxyphenyl chloride", "(o-Hydroxyphenyl)mercury chloride", "o-(Chloromercurio)phenol", "o-(Chloromercuri)phenol", "NP-27", "(2-Hydroxyphenyl)mercuric chloride", "Mercufenol chloride", "(2-Hydroxyphenyl)mercury chloride", "2-(Chloromercurio)phenol", "Salicresin Fluid", "Myringacaine Drops", "U 7743", "NSC 5579"], "SMILES": "[Hg](Cl)C1=C(O)C=CC=C1", "physical_data": {"Molecular Weight": "", "Molecular Formula": "C6H5ClHgO", "Melting Point": "151 \u00b0C"}}