{"cas_no": "90-05-1", "cn_name": "\u6108\u521b\u6728\u915a", "en_name": ["Guaiacol", "Phenol, 2-methoxy-", "Phenol, o-methoxy-", "2-Methoxyphenol", "Guaiacol", "o-Hydroxyanisole", "o-Methoxyphenol", "Pyroguaiac acid", "2-Hydroxyanisole", "1-Hydroxy-2-methoxybenzene", "O-Methyl catechol", "Anastil", "Guaiastil", "o-Guaiacol", "Pyrocatechol monomethyl ether", "Methylcatechol", "NSC 3815", "2-Methoxyl-4-vinylphenol", "MeSH ID: D006139"], "SMILES": "O(C)C1=C(O)C=CC=C1", "physical_data": {"Molecular Weight": "124.14", "Molecular Formula": "C7H8O2", "Boiling Point": "204-206 \u00b0C", "Melting Point": "32 \u00b0C", "Density": "1.1287 g/cm\u00b3 @ Temp: 21 \u00b0C"}}