{"cas_no": "90-01-7", "cn_name": "\u6c34\u6768\u9187", "en_name": ["2-Hydroxybenzyl alcohol", "Benzenemethanol, 2-hydroxy-", "Benzyl alcohol, o-hydroxy-", "2-Hydroxybenzenemethanol", "o-Hydroxybenzyl alcohol", "Salicyl alcohol", "Saligenin", "Saligenol", "o-Methylolphenol", "2-Methylolphenol", "2-Hydroxymethylphenol", "2-Hydroxybenzyl alcohol", "\u03b1-Hydroxy-o-cresol", "\u03b1,2-Dihydroxytoluene", "Diathesin", "o-(Hydroxymethyl)phenol", "1-(o-Hydroxyphenyl)methanol", "Salicylic alcohol", "Salicain", "NSC 3814"], "SMILES": "C(O)C1=C(O)C=CC=C1", "physical_data": {"Molecular Weight": "124.14", "Molecular Formula": "C7H8O2", "Melting Point": "87 \u00b0C", "Density": "1.16 g/cm\u00b3"}}