{"cas_no": "90-02-8", "cn_name": "\u6c34\u6768\u919b", "en_name": ["Salicylaldehyde", "Benzaldehyde, 2-hydroxy-", "Salicylaldehyde", "2-Hydroxybenzaldehyde", "Salicylal", "Salicylic aldehyde", "o-Formylphenol", "2-Formylphenol", "o-Hydroxybenzaldehyde", "NSC 112278", "NSC 49178", "NSC 83559", "NSC 83560", "NSC 83561", "NSC 83562", "NSC 97202", "2-Hydroxy-1-benzaldehyde"], "SMILES": "C(=O)C1=C(O)C=CC=C1", "physical_data": {"Molecular Weight": "122.12", "Molecular Formula": "C7H6O2", "Boiling Point": "197 \u00b0C @ Press: 760 Torr", "Melting Point": "-7 \u00b0C", "Density": "1.1674 g/cm\u00b3 @ Temp: 20 \u00b0C"}}