{"cas_no": "90-00-6", "cn_name": "2-\u4e59\u57fa\u82ef\u915a", "en_name": ["2-Ethylphenol", "Phenol, 2-ethyl-", "Phenol, o-ethyl-", "2-Ethylphenol", "o-Ethylphenol", "Phlorol", "1-Ethyl-2-hydroxybenzene", "NSC 10112", "o-Hydroxyethylbenzene"], "SMILES": "C(C)C1=C(O)C=CC=C1", "physical_data": {"Molecular Weight": "122.16", "Molecular Formula": "C8H10O", "Boiling Point": "204.5 \u00b0C", "Melting Point": "18 \u00b0C", "Density": "1.0146 g/cm\u00b3 @ Temp: 25 \u00b0C"}}