{"cas_no": "90-04-0", "cn_name": "\u90bb\u7532\u6c27\u57fa\u82ef\u80fa", "en_name": ["2-Methoxyaniline", "Benzenamine, 2-methoxy-", "o-Anisidine", "2-Methoxybenzenamine", "o-Aminoanisole", "2-Aminoanisole", "2-Methoxyaniline", "o-Methoxyaniline", "o-Methoxyphenylamine", "1-Amino-2-methoxybenzene", "2-Methoxy-1-aminobenzene", "o-Aminomethoxybenzene", "2-Methoxyphenylamine", "2-Aminomethoxybenzene", "NSC 3122", "o-Anisidin"], "SMILES": "O(C)C1=C(N)C=CC=C1", "physical_data": {"Molecular Weight": "123.15", "Molecular Formula": "C7H9NO", "Boiling Point": "225 \u00b0C", "Melting Point": "5 \u00b0C", "Density": "1.098 g/cm\u00b3 @ Temp: 15 \u00b0C"}}