{"cas_no": "90-11-9", "cn_name": "1-\u6eb4\u4ee3\u8418", "en_name": ["1-Bromonaphthalene", "Naphthalene, 1-bromo-", "1-Bromonaphthalene", "\u03b1-Bromonaphthalene", "\u03b1-Naphthyl bromide", "1-Naphthyl bromide", "NSC 6551", "Naphthalen-1-yl bromide"], "SMILES": "BrC=1C2=C(C=CC1)C=CC=C2", "physical_data": {"Molecular Weight": "207.07", "Molecular Formula": "C10H7Br", "Boiling Point": "281 \u00b0C", "Melting Point": "-1.8 \u00b0C", "Density": "1.4834 g/cm\u00b3 @ Temp: 20 \u00b0C"}}