{"cas_no": "90-12-0", "cn_name": "1-\u7532\u57fa\u8418", "en_name": ["1-Methylnaphthalene", "Naphthalene, 1-methyl-", "1-Methylnaphthalene", "\u03b1-Methylnaphthalene", "NSC 3574", "Methynaph H", "Mechinafu H"], "SMILES": "CC=1C2=C(C=CC1)C=CC=C2", "physical_data": {"Molecular Weight": "142.20", "Molecular Formula": "C11H10", "Boiling Point": "240-243 \u00b0C", "Melting Point": "-22 \u00b0C", "Density": "1.025 g/cm\u00b3"}}