{"cas_no": "90-18-6", "cn_name": "\u516d\u7f9f\u9ec4\u916e/\u680e\u8349\u4ead", "en_name": ["Quercetagetin", "4H-1-Benzopyran-4-one, 2-(3,4-dihydroxyphenyl)-3,5,6,7-tetrahydroxy-", "Quercetagetin", "Flavone, 3,3\u2032,4\u2032,5,6,7-hexahydroxy-", "2-(3,4-Dihydroxyphenyl)-3,5,6,7-tetrahydroxy-4H-1-benzopyran-4-one", "3,3\u2032,4\u2032,5,6,7-Hexahydroxyflavone", "3,5,6,7,3\u2032,4\u2032-Hexahydroxyflavone", "6-Hydroxyquercetin", "NSC 115916"], "SMILES": "O=C1C=2C(OC(=C1O)C3=CC(O)=C(O)C=C3)=CC(O)=C(O)C2O", "physical_data": {"Molecular Weight": "318.24", "Molecular Formula": "C15H10O8", "Melting Point": "315-318 \u00b0C"}}