{"cas_no": "90-15-3", "cn_name": "1-\u8418\u915a", "en_name": ["1-Naphthol", "1-Naphthalenol", "1-Naphthol", "C.I. 76605", "BASF Ursol ERN", "C.I. Oxidation Base 33", "Durafur Developer D", "Fouramine ERN", "Fourrine 99", "Fourrine ERN", "Furro ER", "1-Hydroxynaphthalene", "\u03b1-Hydroxynaphthalene", "Nako TRB", "\u03b1-Naphthol", "Tertral ERN", "Ursol ERN", "Zoba ERN", "\u03b1-Naphthyl alcohol", "1-Naphthyl alcohol", "Naphthol-1", "NSC 9586", "Naphthyl-1-ol", "5-Hydroxynaphthalene"], "SMILES": "OC=1C2=C(C=CC1)C=CC=C2", "physical_data": {"Molecular Weight": "144.17", "Molecular Formula": "C10H8O", "Boiling Point": "288 \u00b0C", "Melting Point": "96 \u00b0C", "Density": "1.0954 g/cm\u00b3 @ Temp: 98.7 \u00b0C"}}