{"cas_no": "90-13-1", "cn_name": "1-\u6c2f\u8418", "en_name": ["1-Chloronaphthalene", "Naphthalene, 1-chloro-", "1-Chloronaphthalene", "\u03b1-Chloronaphthalene", "1-Naphthyl chloride", "\u03b1-Naphthyl chloride", "1-Naphthalenyl chloride", "PCN 1", "NSC 6166", "1-Chloronaphthaline"], "SMILES": "ClC=1C2=C(C=CC1)C=CC=C2", "physical_data": {"Molecular Weight": "162.62", "Molecular Formula": "C10H7Cl", "Boiling Point": "259.3 \u00b0C @ Press: 760 Torr", "Melting Point": "-2.5 \u00b0C", "Density": "1.19382 g/cm\u00b3 @ Temp: 20 \u00b0C"}}