{"cas_no": "90-17-5", "cn_name": "\u7ed3\u6676\u73ab\u7470", "en_name": ["Rosephenone", "Benzenemethanol, \u03b1-(trichloromethyl)-, 1-acetate", "Benzyl alcohol, \u03b1-(trichloromethyl)-, acetate", "Benzenemethanol, \u03b1-(trichloromethyl)-, acetate", "Rosacetol", "(Trichloromethyl)phenylcarbinyl acetate", "Rosetone", "(\u00b1)-\u03b1-(Trichloromethyl)benzyl acetate", "Rosone", "\u03b1-(Trichloromethyl)benzyl acetate", "Rosephenone", "2,2,2-Trichloro-1-phenylethyl acetate", "NSC 165582", "2-Acetoxy-1,1,1-trichloro-2-phenylethane", "Crystal rose", "Rosacetate", "Rosinol Cryst"], "SMILES": "C(OC(C)=O)(C(Cl)(Cl)Cl)C1=CC=CC=C1", "physical_data": {"Molecular Weight": "267.54", "Molecular Formula": "C10H9Cl3O2", "Melting Point": "89 \u00b0C"}}