{"cas_no": "90-19-7", "cn_name": "\u9f20\u674e\u7d20", "en_name": ["Rhamnetin", "4H-1-Benzopyran-4-one, 2-(3,4-dihydroxyphenyl)-3,5-dihydroxy-7-methoxy-", "Rhamnetin", "Flavone, 3,3\u2032,4\u2032,5-tetrahydroxy-7-methoxy-", "2-(3,4-Dihydroxyphenyl)-3,5-dihydroxy-7-methoxy-4H-1-benzopyran-4-one", "C.I. 75690", "7-Methoxyquercetin", "7-Methylquercetin", "7-O-Methylquercetin", "Quercetin 7-methyl ether", "\u03b2-Rhamnocitrin", "3,3\u2032,4\u2032,5-Tetrahydroxy-7-methoxyflavone", "3,5,3\u2032,4\u2032-Tetrahydroxy-7-methoxyflavone", "LY 805921", "NSC 19802", "2-(3,4-Dihydroxyphenyl)-3,5-dihydroxy-7-methoxychromen-4-one"], "SMILES": "O=C1C=2C(OC(=C1O)C3=CC(O)=C(O)C=C3)=CC(OC)=CC2O", "physical_data": {"Molecular Weight": "316.26", "Molecular Formula": "C16H12O7", "Melting Point": "295 \u00b0C"}}