{"cas_no": "90-14-2", "cn_name": "1-\u7898\u8418", "en_name": ["1-Iodonaphthalene", "Naphthalene, 1-iodo-", "1-Iodonaphthalene", "\u03b1-Iodonaphthalene", "1-Naphthyl iodide", "\u03b1-Naphthyl iodide", "NSC 9275", "Naphthalen-1-yl iodide"], "SMILES": "IC=1C2=C(C=CC1)C=CC=C2", "physical_data": {"Molecular Weight": "254.07", "Molecular Formula": "C10H7I", "Boiling Point": "302 \u00b0C", "Melting Point": "4.2 \u00b0C"}}