{"cas_no": "90-16-4", "cn_name": "1,2,3-\u82ef\u5e76\u4e09\u55ea-4(3H)-\u916e", "en_name": ["1,2,3-Benzotriazin-4(3H)-one", "1,2,3-Benzotriazin-4(3H)-one", "1,2,3-Benzotriazin-4(1H)-one", "Benzazimide", "Benzazimidone", "4-Ketobenz-1,2,3-triazine", "3,4-Dihydro-4-oxo-1,2,3-benzotriazine", "NSC 13563", "NSC 20121", "Benzo[d][1,2,3]triazin-4(3H)-one", "1,4-Dihydro-1,2,3-benzotriazin-4-one", "1H-Benzo[d][1,2,3]triazin-4-one", "1H-1,2,3-Benzotriazin-4-one", "3,4-Dihydro-1,2,3-benzotriazin-4-one"], "SMILES": "O=C1C=2C(NN=N1)=CC=CC2", "physical_data": {"Molecular Weight": "147.13", "Molecular Formula": "C7H5N3O", "Melting Point": "210 \u00b0C (decomp)"}}