{"cas_no": "90-26-6", "cn_name": "2-\u82ef\u57fa\u4e01\u9170\u80fa", "en_name": ["2-Phenylbutanamide", "Benzeneacetamide, \u03b1-ethyl-", "Butyramide, 2-phenyl-", "\u03b1-Ethylbenzeneacetamide", "TH 4128", "Geriapan", "Geristerol", "Hyposterol", "Phenetamid", "Phenetamide", "2-Phenylbutanamide", "\u03b1-Phenylbutyramide", "2-Phenylbutyramide", "\u03b1-Phenyl-\u03b1-ethylacetamide", "Redusterol", "\u03b1-Ethyl-\u03b1-toluamide", "Substerina", "Nivonorm", "Eusterol", "Normosterolo", "Phenexan", "Lipilisol", "NSC 1861", "(\u00b1)-2-Phenylbutyramide", "\u03b1-Ethylphenylacetamide"], "SMILES": "C(C(N)=O)(CC)C1=CC=CC=C1", "physical_data": {"Molecular Weight": "163.22", "Molecular Formula": "C10H13NO", "Boiling Point": "185 \u00b0C @ Press: 16 Torr", "Melting Point": "86 \u00b0C"}}