{"cas_no": "90-22-2", "cn_name": "\u620a\u6c99\u6eb4\u94f5", "en_name": ["Valethamate bromide", "Ethanaminium, N,N-diethyl-N-methyl-2-[(3-methyl-1-oxo-2-phenylpentyl)oxy]-, bromide (1:1)", "Ammonium, diethyl(2-hydroxyethyl)methyl-, bromide, 3-methyl-2-phenylvalerate", "Diethyl(2-hydroxyethyl)methylammonium bromide 3-methyl-2-phenylvalerate", "Ethanaminium, N,N-diethyl-N-methyl-2-[(3-methyl-1-oxo-2-phenylpentyl)oxy]-, bromide", "Valeric acid, 3-methyl-2-phenyl-, ester with diethyl(2-hydroxyethyl)methylammonium bromide", "2-Diethylaminoethyl 3-methyl-2-phenylvalerate methylbromide", "2-Diethylaminoethyl 2-phenyl-3-methylvalerate methyl bromide", "Diethyl(2-hydroxyethyl)methylammonium 3-methyl-2-phenylvalerate bromide", "Epidosin", "3-Methyl-2-phenylvaleric acid 2-diethylaminoethyl ester methyl bromide", "3-Methyl-2-phenylvaleric acid diethyl(2-hydroxyethyl)methylammonium bromide ester", "Murel", "2-Phenyl-3-methylvaleric acid \u03b2-(diethylamino)ethyl ester bromomethylate", "Valethamate bromide", "Resitan", "Elist", "Epidosan", "Letamate", "S 78", "Velamate", "Release V", "Barespan"], "SMILES": "C(C(OCC[N+](CC)(CC)C)=O)(C(CC)C)C1=CC=CC=C1.[Br-]", "physical_data": {"Molecular Weight": "", "Molecular Formula": "C19H32NO2.Br", "Melting Point": "101.5 \u00b0C"}}