{"cas_no": "90-24-4", "cn_name": "4',6-\u4e8c\u7532\u57fa-2-\u7f9f\u57fa\u82ef\u4e59\u916e", "en_name": ["Xanthoxylin", "Ethanone, 1-(2-hydroxy-4,6-dimethoxyphenyl)-", "Acetophenone, 2\u2032-hydroxy-4\u2032,6\u2032-dimethoxy-", "1-(2-Hydroxy-4,6-dimethoxyphenyl)ethanone", "Brevifolin", "Phloroacetophenone dimethyl ether", "Xanthoxylin", "2,4-Di-O-methylphloroacetophenone", "2\u2032-Hydroxy-4\u2032,6\u2032-dimethoxyacetophenone", "Brevifolin (Zanthoxylum)", "Phloroacetophenone 2,4-dimethyl ether", "1-Acetyl-2-hydroxy-4,6-dimethoxybenzene", "NSC 17392", "2-Acetyl-3,5-dimethoxyphenol", "2\u2032,4\u2032-Dimethoxy-6\u2032-hydroxyacetophenone", "4\u2032,6\u2032-Dimethoxy-2\u2032-hydroxyacetophenone", "1-(2-Hydroxy-4,6-dimethoxyphenyl)ethan-1-one"], "SMILES": "O(C)C1=C(C(C)=O)C(O)=CC(OC)=C1", "physical_data": {"Molecular Weight": "196.20", "Molecular Formula": "C10H12O4", "Boiling Point": "307 \u00b0C @ Press: 760 Torr", "Melting Point": "82 \u00b0C"}}