{"cas_no": "90-27-7", "cn_name": "2-\u82ef\u57fa\u4e01\u9178", "en_name": ["2-Phenylbutyric acid", "Benzeneacetic acid, \u03b1-ethyl-", "Butyric acid, 2-phenyl-", "\u03b1-Ethylbenzeneacetic acid", "\u03b1-Ethyl-\u03b1-toluic acid", "\u03b1-Phenylbutyric acid", "2-Phenylbutanoic acid", "\u03b1-Ethylphenylacetic acid", "2-Phenylbutyric acid", "(\u00b1)-\u03b1-Phenylbutyric acid", "(\u00b1)-2-Phenylbutyric acid", "(\u00b1)-\u03b1-Ethylphenylacetic acid", "(\u00b1)-2-Phenylbutanoic acid", "(RS)-2-Phenylbutanoic acid", "NSC 1860"], "SMILES": "C(C(O)=O)(CC)C1=CC=CC=C1", "physical_data": {"Molecular Weight": "164.20", "Molecular Formula": "C10H12O2", "Boiling Point": "271 \u00b0C", "Melting Point": "47.5 \u00b0C", "Density": "1.066 g/cm\u00b3 @ Temp: 26 \u00b0C"}}