{"cas_no": "90-34-6", "cn_name": "\u4f2f\u6c28\u55b9", "en_name": ["Primaquine", "1,4-Pentanediamine, N4-(6-methoxy-8-quinolinyl)-", "Quinoline, 8-[(4-amino-1-methylbutyl)amino]-6-methoxy-", "N4-(6-Methoxy-8-quinolinyl)-1,4-pentanediamine", "SN 13272", "8-(4-Amino-1-methylbutylamino)-6-methoxyquinoline", "6-Methoxy-8-[4-amino-1-methylbutylamino]quinoline", "Primaquine", "Primachin", "Neo-Quipenyl", "Primaquin", "WR 2975", "(\u00b1)-Primaquine", "dl-Primaquine", "NSC 27296", "Maliride", "Malirid", "Primacip", "Primalex", "Leoprime", "Pimaquin", "1,4-Pentanediamine N4-(6-methoxy-8-quinolinyl)-", "MeSH ID: D011319"], "SMILES": "N(C(CCCN)C)C=1C2=C(C=C(OC)C1)C=CC=N2", "physical_data": {"Molecular Weight": "259.35", "Molecular Formula": "C15H21N3O", "Boiling Point": "177 \u00b0C", "Melting Point": "&lt;25 \u00b0C"}}