{"cas_no": "90-31-3", "cn_name": "2-(3-\u6c2f\u82ef\u57fa)-2,4-\u4e8c\u6c22-5-\u7532\u57fa-3H-\u5421\u5511\u5549-3-\u916e", "en_name": ["1-(3-Chlorophenyl)-3-methyl-5-pyrazolone", "3H-Pyrazol-3-one, 2-(3-chlorophenyl)-2,4-dihydro-5-methyl-", "2-Pyrazolin-5-one, 1-(m-chlorophenyl)-3-methyl-", "2-(3-Chlorophenyl)-2,4-dihydro-5-methyl-3H-pyrazol-3-one", "1-(m-Chlorophenyl)-3-methyl-5-pyrazolone", "1-(3-Chlorophenyl)-3-methyl-5-pyrazolone", "3-Methyl-1-(3\u2032-chlorophenyl)-2-pyrazolin-5-one", "1-(3\u2032-Chlorophenyl)-3-methyl-2-pyrazolin-5-one", "NSC 166399", "1-(3-Chlorophenyl)-3-methyl-2-pyrazolin-5-one", "1-(3-Chlorophenyl)-3-methyl-4,5-dihydropyrazole-5-one", "1-(3-Chlorophenyl)-3-methyl-4,5-dihydro-1H-pyrazol-5-one", "2-(3-Chlorophenyl)-5-methyl-4H-pyrazol-3-one"], "SMILES": "O=C1N(C2=CC(Cl)=CC=C2)N=C(C)C1", "physical_data": {"Molecular Weight": "208.64", "Molecular Formula": "C10H9ClN2O", "Melting Point": "127-127.5 \u00b0C"}}