{"cas_no": "90-33-5", "cn_name": "\u7f9f\u7532\u9999\u8c46\u7d20", "en_name": ["4-Methylumbelliferone", "2H-1-Benzopyran-2-one, 7-hydroxy-4-methyl-", "Coumarin, 7-hydroxy-4-methyl-", "Umbelliferone, 4-methyl-", "7-Hydroxy-4-methyl-2H-1-benzopyran-2-one", "7-Hydroxy-4-methylcoumarin", "Hymecromone", "LM 94", "4-Methyl-7-hydroxycoumarin", "\u03b2-Methylumbelliferone", "4-Methylumbelliferone", "7-Hydroxy-4-methyl-2-oxo-3-chromene", "Imecromone", "Cantabiline", "Bilcolic", "Bilicante", "Cantabilin", "Eurogale", "Medilla", "Omega 127", "Mendiaxon", "Pilot 447", "Coumarin 4", "Cholestil", "4-MU", "Coumarin 456", "7-Hydroxy-4-methyl-2-chromenone", "Cholonerton", "Cholspasmin", "Himecol", "Cumarote C", "Biliton H", "NSC 19026", "NSC 9408", "7-Hydroxy-4-methyl-2H-chromen-2-one", "7-Hydroxy-4-methyl-2H-chomen-2-one", "7-Hydroxyl-4-methylcoumarine", "7-Hydroxy-4-methylbenzopyran-2-one", "Odeston", "7-Hydroxy-4-methyl-2H-chromen-2-on", "4-Methyl-2-oxo-2H-chromen-7-ol"], "SMILES": "CC=1C=2C(OC(=O)C1)=CC(O)=CC2", "physical_data": {"Molecular Weight": "176.17", "Molecular Formula": "C10H8O3", "Melting Point": "195.5 \u00b0C"}}