{"cas_no": "90-39-1", "cn_name": "(-)-\u9e70\u722a\u8c46\u78b1", "en_name": ["Sparteine", "7,14-Methano-2H,6H-dipyrido[1,2-a:1\u2032,2\u2032-e][1,5]diazocine, dodecahydro-, (7S,7aR,14S,14aS)-", "Sparteine", "7,14-Methano-2H,6H-dipyrido[1,2-a:1\u2032,2\u2032-e][1,5]diazocine, dodecahydro-, [7S-(7\u03b1,7a\u03b1,14\u03b1,14a\u03b2)]-", "(7S,7aR,14S,14aS)-Dodecahydro-7,14-methano-2H,6H-dipyrido[1,2-a:1\u2032,2\u2032-e][1,5]diazocine", "(-)-Sparteine", "l-Sparteine", "6\u03b2,7\u03b1,9\u03b1,11\u03b1-Pachycarpine", "Spartein", "Lupinidine", "Lupinidin", "L-(-)-Sparteine", "L-Sparteine", "MeSH ID: D013034"], "SMILES": "C12C3N(CC(C1)C4N(C2)CCCC4)CCCC3", "physical_data": {"Molecular Weight": "234.38", "Molecular Formula": "C15H26N2", "Boiling Point": "325 \u00b0C", "Melting Point": "30.5 \u00b0C"}}