{"cas_no": "90-30-2", "cn_name": "1-\u8418\u6c28\u57fa\u82ef", "en_name": ["Phenyl-1-naphthylamine", "1-Naphthalenamine, N-phenyl-", "1-Naphthylamine, N-phenyl-", "N-Phenyl-1-naphthalenamine", "C.I. 44050", "Neozone A", "N-Phenyl-\u03b1-naphthylamine", "N-Phenyl-1-naphthylamine", "Nonox A", "Phenyl-1-naphthylamine", "Antioxidant PAN", "\u03b1-Naphthylphenylamine", "N-(1-Naphthyl)aniline", "Nonox AN", "N-Phenyl-1-aminonaphthalene", "Vulkanox PAN", "Nocrac PA", "PANA", "1-Anilinonaphthalene", "Antigene PA", "1-(N-Phenylamino)naphthalene", "Amoco 32", "1-(Phenylamino)naphthalene", "Naugard PANA", "1-Naphthylphenylamine", "Irganox L 05", "N-(1-Naphthyl)-N-phenylamine", "T 531", "T 531 (antioxidant)", "Antioxidant A", "NSC 2622", "N-Phenyl-N-(1-naphthyl)amine", "N-Phenyl-N\u2032-naphthylamine", "N-(Naphthalen-1-yl)aniline", "Antioxidant PNA"], "SMILES": "N(C=1C2=C(C=CC1)C=CC=C2)C3=CC=CC=C3", "physical_data": {"Molecular Weight": "219.28", "Molecular Formula": "C16H13N", "Boiling Point": "335 \u00b0C @ Press: 558 Torr", "Melting Point": "61 \u00b0C", "Density": "1.2 g/cm\u00b3"}}