{"cas_no": "90-49-3", "cn_name": "\u82ef\u4e01\u9170\u8132", "en_name": ["Pheneturide", "Benzeneacetamide, N-(aminocarbonyl)-\u03b1-ethyl-", "Urea, (2-phenylbutyryl)-", "N-(Aminocarbonyl)-\u03b1-ethylbenzeneacetamide", "Ethylphenacemide", "Lircapyl", "Pheneturide", "2-Phenylbutyrylurea", "N-(\u03b1-Phenylbutyryl)urea", "Phenylethylacetylurea", "\u03b1-Phenyl-\u03b1-ethylacetylurea", "1-[(Ethyl)phenylacetyl]urea", "Benuride", "M 551", "S 46", "Phenuride", "dl-Pheneturide", "PBU", "EPA", "(2-Phenylbutanoyl)urea"], "SMILES": "C(C(NC(N)=O)=O)(CC)C1=CC=CC=C1", "physical_data": {"Molecular Weight": "206.24", "Molecular Formula": "C11H14N2O2", "Melting Point": "162 \u00b0C"}}