{"cas_no": "90-44-8", "cn_name": "\u84bd\u916e", "en_name": ["Anthrone", "9(10H)-Anthracenone", "Anthrone", "Anthracene, 9,10-dihydro-9-oxo-", "Carbothrone", "9-Oxoanthracene", "NSC 1965", "Quino Power ATR"], "SMILES": "O=C1C=2C(CC=3C1=CC=CC3)=CC=CC2", "physical_data": {"Molecular Weight": "194.23", "Molecular Formula": "C14H10O", "Boiling Point": "375.2 \u00b0C", "Melting Point": "155 \u00b0C"}}