{"cas_no": "90-42-6", "cn_name": "2-\u73af\u5df1\u70f7\u57fa\u73af\u5df1\u916e", "en_name": ["2-Cyclohexylcyclohexanone", "[1,1\u2032-Bicyclohexyl]-2-one", "Cyclohexanone, 2-cyclohexyl-", "2-Cyclohexylcyclohexanone", "Lavamenthe", "NSC 22249", "2-Cyclohexylcyclohexan-1-one"], "SMILES": "O=C1C(C2CCCCC2)CCCC1", "physical_data": {"Molecular Weight": "180.29", "Molecular Formula": "C12H20O", "Boiling Point": "264 \u00b0C", "Melting Point": "-32 \u00b0C", "Density": "0.987 g/cm\u00b3 @ Temp: 16 \u00b0C"}}