{"cas_no": "90-43-7", "cn_name": "\u90bb\u82ef\u57fa\u82ef\u915a", "en_name": ["[1,1\u2032-Biphenyl]-2-ol", "[1,1\u2032-Biphenyl]-2-ol", "2-Biphenylol", "o-Phenylphenol", "2-Hydroxybiphenyl", "o-Hydroxydiphenyl", "2-Hydroxydiphenyl", "o-Xenol", "o-Hydroxybiphenyl", "o-Biphenylol", "o-Diphenylol", "Remol TRF", "Dowicide 1", "Preventol O extra", "Tumescal OPE", "Tetrosin OE", "Nectryl", "Anthrapole 73", "2-Hydroxy-1,1\u2032-biphenyl", "Invalon OP", "Tetrosin OE-N", "Preventol 3041", "Britewood S", "NSC 1548", "2-Phenylphenol", "O-PP", "Decco OPP 20"], "SMILES": "OC1=C(C2=CC=CC=C2)C=CC=C1", "physical_data": {"Molecular Weight": "170.21", "Molecular Formula": "C12H10O", "Boiling Point": "286 \u00b0C", "Melting Point": "59 \u00b0C", "Density": "1.213 g/cm\u00b3 @ Temp: 25 \u00b0C"}}