{"cas_no": "90-41-5", "cn_name": "\u90bb\u6c28\u57fa\u8054\u82ef", "en_name": ["2-Aminobiphenyl", "[1,1\u2032-Biphenyl]-2-amine", "2-Biphenylamine", "o-Aminodiphenyl", "2-Aminodiphenyl", "o-Phenylaniline", "o-Biphenylamine", "2-Aminobiphenyl", "o-Aminobiphenyl", "2-Phenylaniline", "2-Phenylbenzenamine", "NSC 7661", "2-Amino-1,1\u2032-biphenyl", "2-Amino-1,1-Biphenyl"], "SMILES": "NC1=C(C2=CC=CC=C2)C=CC=C1", "physical_data": {"Molecular Weight": "169.22", "Molecular Formula": "C12H11N", "Boiling Point": "299 \u00b0C", "Melting Point": "51 \u00b0C"}}