{"cas_no": "90-46-0", "cn_name": "\u5360\u5428\u9187", "en_name": ["Xanthydrol", "9H-Xanthen-9-ol", "Xanthen-9-ol", "9-Hydroxyxanthene", "Xanthydrol", "9-Xanthydrol", "NSC 4038", "Xanthene alcohol"], "SMILES": "OC1C=2C(OC=3C1=CC=CC3)=CC=CC2", "physical_data": {"Molecular Weight": "198.22", "Molecular Formula": "C13H10O2", "Melting Point": "116-120 \u00b0C"}}