{"cas_no": "90-47-1", "cn_name": "\u5360\u5428\u916e", "en_name": ["Xanthone", "9H-Xanthen-9-one", "Xanthen-9-one", "Benzophenone oxide", "Dibenzo-\u03b3-pyrone", "Diphenylene ketone oxide", "Genicide", "9-Oxoxanthene", "Xanthone", "9H-Xanthene, 9-oxo-", "Xanthenone", "9-Xanthone", "NSC 14978", "Dibenzo[b,e]pyran-10-one"], "SMILES": "O=C1C=2C(OC=3C1=CC=CC3)=CC=CC2", "physical_data": {"Molecular Weight": "196.20", "Molecular Formula": "C13H8O2", "Boiling Point": "351 \u00b0C", "Melting Point": "174 \u00b0C"}}