{"cas_no": "90-45-9", "cn_name": "9-\u6c28\u57fa\u5416\u5576", "en_name": ["9-Aminoacridine", "9-Acridinamine", "Acridine, 9-amino-", "9AA", "Aminacrine", "9-Aminoacridine", "Monacrin", "10-Amino-5-azaanthracene", "Aminacrin", "Izoacridina", "NSC 13000", "NSC 28747", "MeSH ID: D000585"], "SMILES": "NC=1C2=C(N=C3C1C=CC=C3)C=CC=C2", "physical_data": {"Molecular Weight": "194.23", "Molecular Formula": "C13H10N2", "Melting Point": "241 \u00b0C"}}