{"cas_no": "90-50-6", "cn_name": "3,4,5-\u4e09\u7532\u6c27\u57fa\u8089\u6842\u9178", "en_name": ["3,4,5-Trimethoxycinnamic acid", "2-Propenoic acid, 3-(3,4,5-trimethoxyphenyl)-", "Cinnamic acid, 3,4,5-trimethoxy-", "3-(3,4,5-Trimethoxyphenyl)-2-propenoic acid", "3,4,5-Trimethoxycinnamic acid", "O-Methylsinapic acid", "3,4,5-Trimethoxyphenylacrylic acid", "3-(3,4,5-Trimethoxyphenyl)propenoic acid", "NSC 66175", "3-(3,4,5-Trimethoxyphenyl)acrylic acid"], "SMILES": "O(C)C1=C(OC)C(OC)=CC(C=CC(O)=O)=C1", "physical_data": {"Molecular Weight": "238.24", "Molecular Formula": "C12H14O5", "Melting Point": "126.5-127 \u00b0C"}}