{"cas_no": "90-52-8", "cn_name": "8-\u6c28\u57fa-6-\u7532\u6c27\u57fa\u55b9\u5549", "en_name": ["6-Methoxy-8-aminoquinoline", "8-Quinolinamine, 6-methoxy-", "Quinoline, 8-amino-6-methoxy-", "6-Methoxy-8-quinolinamine", "Amichin", "8-Amino-6-methoxyquinoline", "6-Methoxy-8-aminoquinoline", "WR 15081", "6-Methoxyquinolin-8-ylamine", "NSC 119507", "NSC 119508", "NSC 13573", "6-Methoxyquinolin-8-amine"], "SMILES": "NC=1C2=C(C=C(OC)C1)C=CC=N2", "physical_data": {"Molecular Weight": "174.20", "Molecular Formula": "C10H10N2O", "Boiling Point": "137-138 \u00b0C @ Press: 1 Torr", "Melting Point": "41 \u00b0C"}}