{"cas_no": "90-59-5", "cn_name": "3,5-\u4e8c\u6eb4\u6c34\u6768\u919b", "en_name": ["3,5-Dibromosalicylaldehyde", "Benzaldehyde, 3,5-dibromo-2-hydroxy-", "Salicylaldehyde, 3,5-dibromo-", "3,5-Dibromo-2-hydroxybenzaldehyde", "Dalyde", "3,5-Dibromosalicylaldehyde", "2-Hydroxy-3,5-dibromobenzaldehyde", "NSC 6221", "1-Formyl-2-hydroxy-3,5-dibromobenzene", "4,6-Dibromo-2-formylphenol", "2,4-Dibromo-6-formylphenol"], "SMILES": "C(=O)C1=C(O)C(Br)=CC(Br)=C1", "physical_data": {"Molecular Weight": "279.91", "Molecular Formula": "C7H4Br2O2", "Melting Point": "86 \u00b0C"}}