{"cas_no": "90-66-4", "cn_name": "\u6297\u6c27\u5242 LK-1081", "en_name": ["2,2\u2032-Thiobis(4-methyl-6-tert-butylphenol)", "Phenol, 2,2\u2032-thiobis[6-(1,1-dimethylethyl)-4-methyl-", "p-Cresol, 2,2\u2032-thiobis[6-tert-butyl-", "2,2\u2032-Thiobis[6-(1,1-dimethylethyl)-4-methylphenol]", "Advastab 406", "Bis(5-methyl-3-tert-butyl-2-hydroxyphenyl) sulfide", "Thioalkofen BP", "2,2\u2032-Thiobis(6-tert-butyl-p-cresol)", "2,2\u2032-Thiobis(6-tert-butyl-4-methylphenol)", "Bis(5-methyl-3-tert-butyl-2-hydroxyphenyl) monosulfide", "CAO 6", "2,2\u2032-Thiobis(4-methyl-6-tert-butylphenol)", "Thioalkophene BP", "Bis(3-tert-butyl-2-hydroxy-5-methylphenyl) sulfide", "Bis(5-methyl-3-tert-butyl-2-oxyphenyl) monosulfide", "CAO 4", "SAO 6", "Irganox 1081", "2,2\u2032-Dihydroxy-3,3\u2032-di-tert-butyl-5,5\u2032-dimethyldiphenyl sulfide", "Bis(2-hydroxy-3-tert-butyl-5-methylphenyl) sulfide", "Keminox 246T", "Lowinox TBP 6", "NSC 67488", "Irganox 1081FF", "Durad AX 18", "2,2\u2032-Thiobis(4-methyl-6-t-butylphenol)", "Antioxidant 2246S", "2246S", "2,2\u2032-Thiobis(6-tert-butyl-p-cresol)", "2,2\u2032-Thiobis(6-tert-butyl-4- methylphenol)", "2-tert-Butyl-6-(3-tert-butyl-2-hydroxy-5-methylphenyl)sulfanyl-4-methylphenol"], "SMILES": "S(C1=C(O)C(C(C)(C)C)=CC(C)=C1)C2=C(O)C(C(C)(C)C)=CC(C)=C2", "physical_data": {"Molecular Weight": "358.54", "Molecular Formula": "C22H30O2S", "Melting Point": "84-85 \u00b0C"}}