{"cas_no": "90-60-8", "cn_name": "3,5-\u4e8c\u6c2f\u6c34\u6768\u919b", "en_name": ["3,5-Dichlorosalicylaldehyde", "Benzaldehyde, 3,5-dichloro-2-hydroxy-", "Salicylaldehyde, 3,5-dichloro-", "3,5-Dichloro-2-hydroxybenzaldehyde", "3,5-Dichlorosalicylaldehyde", "2-Hydroxy-3,5-dichlorobenzaldehyde", "NSC 96393", "2,4-Dichloro-6-formylphenol"], "SMILES": "C(=O)C1=C(O)C(Cl)=CC(Cl)=C1", "physical_data": {"Molecular Weight": "191.01", "Molecular Formula": "C7H4Cl2O2", "Melting Point": "95 \u00b0C"}}