{"cas_no": "90-69-7", "cn_name": "\u6d1b\u8d1d\u6797", "en_name": ["(-)-Lobeline", "Ethanone, 2-[(2R,6S)-6-[(2S)-2-hydroxy-2-phenylethyl]-1-methyl-2-piperidinyl]-1-phenyl-", "Lobeline", "Ethanone, 2-[6-(2-hydroxy-2-phenylethyl)-1-methyl-2-piperidinyl]-1-phenyl-, [2R-[2\u03b1,6\u03b1(S*)]]-", "\u03b1-Lobeline", "2-[(2R,6S)-6-[(2S)-2-Hydroxy-2-phenylethyl]-1-methyl-2-piperidinyl]-1-phenylethanone", "8,10-Diphenyllobelionol", "2-[6-(\u03b2-Hydroxyphenethyl)-1-methyl-2-piperidyl]acetophenone", "Inflatine", "(-)-Lobeline", "Lobnico", "Lobelin", "l-Lobeline", "L-Lobeline", "(-)-\u03b1-Lobeline", "NIH 11034", "MeSH ID: D008120"], "SMILES": "C(C(O)C1=CC=CC=C1)C2N(C)C(CC(=O)C3=CC=CC=C3)CCC2", "physical_data": {"Molecular Weight": "337.46", "Molecular Formula": "C22H27NO2", "Melting Point": "130.5 \u00b0C"}}