{"cas_no": "90-63-1", "cn_name": "1-\u7f9f\u57fa-1-\u82ef\u4e19\u916e", "en_name": ["1-Hydroxy-1-phenyl-2-propanone", "2-Propanone, 1-hydroxy-1-phenyl-", "1-Hydroxy-1-phenyl-2-propanone", "1-Phenylacetylcarbinol", "1-Hydroxy-1-phenylpropan-2-one", "1-Phenyl-1-hydroxypropan-2-one", "1-Hydroxy-2-oxo-1-phenylpropane", "Phenylacetylcarbinol", "1-Hydroxy-1-phenylacetone", "\u03b1-Hydroxybenzyl methyl ketone", "1-Phenyl-2-oxo-1-propanol", "NSC 404583"], "SMILES": "C(C(C)=O)(O)C1=CC=CC=C1", "physical_data": {"Molecular Weight": "150.17", "Molecular Formula": "C9H10O2", "Boiling Point": "135-137 \u00b0C", "Melting Point": "123-124 \u00b0C", "Density": "1.1045 g/cm\u00b3 @ Temp: 20 \u00b0C"}}