{"cas_no": "90-65-3", "cn_name": "\u9752\u9709\u9178", "en_name": ["Penicillic acid", "2,5-Hexadienoic acid, 3-methoxy-5-methyl-4-oxo-", "Penicillic acid", "3-Methoxy-5-methyl-4-oxo-2,5-hexadienoic acid", "\u03b3-keto-\u03b2-Methoxy-\u03b4-methylene-\u0394\u03b1-hexenoic acid", "NSC 402844", "MeSH ID: D010398"], "SMILES": "C(C(C(C)=C)=O)(=CC(O)=O)OC", "physical_data": {"Molecular Weight": "170.16", "Molecular Formula": "C8H10O4", "Melting Point": "83-84 \u00b0C"}}