{"cas_no": "90-74-4", "cn_name": "\u82a6\u4e01\u7cd6", "en_name": ["Rutinose", "D-Glucose, 6-O-(6-deoxy-\u03b1-L-mannopyranosyl)-", "Rutinose", "6-O-(6-Deoxy-\u03b1-L-mannopyranosyl)-D-glucose"], "SMILES": "O(CC(C(C(C(C=O)O)O)O)O)C1C(O)C(O)C(O)C(C)O1", "physical_data": {"Molecular Weight": "326.30", "Molecular Formula": "C12H22O10", "Melting Point": "190.5 \u00b0C (decomp)"}}