{"cas_no": "90-72-2", "cn_name": "2,4,6-\u4e09(\u4e8c\u7532\u6c28\u57fa\u7532\u57fa)\u82ef\u915a", "en_name": ["2,4,6-Tris[(dimethylamino)methyl]phenol", "Phenol, 2,4,6-tris[(dimethylamino)methyl]-", "Mesitol, \u03b1,\u03b1\u2032,\u03b1\u2032\u2032-tris(dimethylamino)-", "Mesitol, \u03b12,\u03b14,\u03b16-tris(dimethylamino)-", "2,4,6-Tris[(dimethylamino)methyl]phenol", "\u03b1,\u03b1\u2032,\u03b1\u2032\u2032-Tris(dimethylamino)mesitol", "2,4,6-Tris[(N,N-dimethylamino)methyl]phenol", "DMF 3", "S 41028-4", "UP 606/2", "Araldite DY 061", "Araldite DY 064", "Araldite Hardener HY 960", "Sumicure D", "DY 061", "Araldite HY 960", "Capcure EH 30", "EH 30", "Actiron NX 3", "Anchor K 54", "Ancamine K 54", "K 54", "Dabco TMR 30", "DMP 30", "Epilink 230", "Protex NX 3", "CK 54", "Rutapox DMP 30", "TAP", "TAP (aminophenol)", "Versamine EH 30", "NSC 3257", "Versamine CEX 13320", "HY 960-1", "Ancamine 54", "Agidol 53", "JER Cure 3010", "WHUT-RL-C", "Luveak DMP 30", "HY 960", "JER 3010", "Accelerator 960-1", "Alkofen MA", "TMR 30", "Ankamine K 54", "Epikure 3253", "Seikuol TDMP", "TMA-EH 30", "Jointmine No 30", "Jointmine 30", "DEH 35", "Daitocurar HD-Acc 43", "Pcat 1030", "Hiescat HI 54K", "DPM 30", "HI 54K", "HY 9601", "Docure KH 76K"], "SMILES": "C(N(C)C)C1=C(O)C(CN(C)C)=CC(CN(C)C)=C1", "physical_data": {"Molecular Weight": "265.39", "Molecular Formula": "C15H27N3O", "Boiling Point": "130-135 \u00b0C @ Press: 1 Torr", "Density": "0.974 g/cm\u00b3 @ Temp: 15 \u00b0C"}}