{"cas_no": "90-82-4", "cn_name": "\u4f2a\u9ebb\u9ec4\u78b1", "en_name": ["Pseudoephedrine", "Benzenemethanol, \u03b1-[(1S)-1-(methylamino)ethyl]-, (\u03b1S)-", "Pseudoephedrine, (+)-", "Pseudoephedrine", "Benzenemethanol, \u03b1-[1-(methylamino)ethyl]-, [S-(R*,R*)]-", "(\u03b1S)-\u03b1-[(1S)-1-(Methylamino)ethyl]benzenemethanol", "d-\u03c8-Ephedrine", "\u03c8-Ephedrine", "d-Isoephedrine", "L(+)-\u03c8-Ephedrine", "L-(+)-Pseudoephedrine", "\u03c8-Ephedrine, (+)-", "(+)-Pseudoephedrine", "d-Pseudoephedrine", "trans-Ephedrine", "Isoephedrine", "(+)-(1S,2S)-Pseudoephedrine", "(1S,2S)-Ephedrine", "(+)-threo-Ephedrine", "(1S,2S)-Pseudoephedrine", "(+)-\u03c8-Ephedrine", "(1S,2S)-(+)-Pseudoephedrine", "Lopac E 3250", "(1S,2S)-2-(Methylamino)-1-phenylpropan-1-ol", "(S,S)-2-Methylamino-1-phenylpropan-1-ol", "MeSH ID: D054199"], "SMILES": "C(C(NC)C)(O)C1=CC=CC=C1", "physical_data": {"Molecular Weight": "165.23", "Molecular Formula": "C10H15NO", "Boiling Point": "130 \u00b0C @ Press: 16 Torr", "Melting Point": "119 \u00b0C"}}