{"cas_no": "90-80-2", "cn_name": "\u8461\u8404\u7cd6\u9178\u5185\u916f", "en_name": ["\u03b4-Gluconolactone", "D-Gluconic acid, \u03b4-lactone", "Gluconic acid, \u03b4-lactone, D-", "Gluconic acid lactone", "Gluconic acid, lactone, D-", "D-Glucono-1,5-lactone", "D-Gluconic acid 1,5-lactone", "1,5-Gluconolactone", "\u03b4-Gluconolactone", "D-(+)-Gluconic acid \u03b4-lactone", "D-Glucono-\u03b4-lactone", "D-(+)-Glucono-\u03b4-lactone", "D-Gluconic acid lactone", "Gluconolactone", "Fujiglucon", "E 575", "D-(+)-Glucono-1,5-lactone", "Lysactone", "Riken Lactone", "D-(+)-Glucose \u03b4-lactone", "Glucono-\u03b4-lactone", "(3R,4S,5S,6R)-3,4,5-Trihydroxy-6-(hydroxymethyl)tetrahydro-2H-pyran-2-one", "1,5-D-Gluconolactone", "(3R,4S,5S,6R)-3,4,5-Trihydroxy-6-(hydroxymethyl)oxan-2-one"], "SMILES": "C(O)C1C(O)C(O)C(O)C(=O)O1", "physical_data": {"Molecular Weight": "178.14", "Molecular Formula": "C6H10O6", "Melting Point": "153 \u00b0C", "Density": "1.610 g/cm\u00b3 @ Temp: -5 \u00b0C"}}