{"cas_no": "90-94-8", "cn_name": "4,4'-\u4e8c(N,N-\u4e8c\u7532\u6c28\u57fa)\u4e8c\u82ef\u7532\u916e", "en_name": ["4,4\u2032-Bis(dimethylamino)benzophenone", "Methanone, bis[4-(dimethylamino)phenyl]-", "Benzophenone, 4,4\u2032-bis(dimethylamino)-", "Bis[4-(dimethylamino)phenyl]methanone", "4,4\u2032-Bis(dimethylamino)benzophenone", "4,4\u2032-Bis(N,N-dimethylamino)benzophenone", "Bis[p-(N,N-dimethylamino)phenyl] ketone", "Michler's ketone", "p,p\u2032-Bis(dimethylamino)benzophenone", "N,N,N\u2032,N\u2032-Tetramethyl-4,4\u2032-diaminobenzophenone", "Bis(4-dimethylaminophenyl) ketone", "4,4\u2032-Tetramethyldiaminobenzophenone", "p,p\u2032-Tetramethyldiaminobenzophenone", "DABP", "Di(p-dimethylamino)benzophenone", "Nisso Cure MABP", "S 112", "S 112 (ketone)", "NSC 9602", "Photoinitiator MK"], "SMILES": "C(=O)(C1=CC=C(N(C)C)C=C1)C2=CC=C(N(C)C)C=C2", "physical_data": {"Molecular Weight": "268.35", "Molecular Formula": "C17H20N2O", "Melting Point": "172 \u00b0C"}}