{"cas_no": "90-99-3", "cn_name": "\u4e8c\u82ef\u6c2f\u7532\u70f7", "en_name": ["Chlorodiphenylmethane", "Benzene, 1,1\u2032-(chloromethylene)bis-", "Methane, chlorodiphenyl-", "1,1\u2032-(Chloromethylene)bis[benzene]", "Chlorodiphenylmethane", "Benzhydryl chloride", "Diphenylchloromethane", "Diphenylmethyl chloride", "\u03b1-Chlorodiphenylmethane", "NSC 76584", "[Chloro(phenyl)methyl]benzene"], "SMILES": "C(Cl)(C1=CC=CC=C1)C2=CC=CC=C2", "physical_data": {"Molecular Weight": "202.68", "Molecular Formula": "C13H11Cl", "Boiling Point": "173 \u00b0C @ Press: 19 Torr", "Melting Point": "20.5 \u00b0C", "Density": "1.1398 g/cm\u00b3 @ Temp: 20 \u00b0C"}}