{"cas_no": "90-96-0", "cn_name": "4,4'-\u4e8c\u7532\u6c27\u57fa\u4e8c\u82ef\u7532\u916e", "en_name": ["4,4\u2032-Dimethoxybenzophenone", "Methanone, bis(4-methoxyphenyl)-", "Benzophenone, 4,4\u2032-dimethoxy-", "Bis(4-methoxyphenyl)methanone", "4,4\u2032-Dimethoxybenzophenone", "p,p\u2032-Dimethoxybenzophenone", "Bis(p-methoxy)benzophenone", "Di-p-anisyl ketone", "Bis(4-anisyl) ketone", "Bis(p-methoxyphenyl) ketone", "DMBP", "Bis(p-anisyl) ketone", "Di(4-methoxyphenyl) ketone", "4,4\u2032-Bis(methoxy)benzophenone", "Bis(4-methoxyphenyl) ketone", "NSC 4191"], "SMILES": "C(=O)(C1=CC=C(OC)C=C1)C2=CC=C(OC)C=C2", "physical_data": {"Molecular Weight": "242.27", "Molecular Formula": "C15H14O3", "Boiling Point": "180-240 \u00b0C @ Press: 13 Torr", "Melting Point": "144 \u00b0C"}}