{"cas_no": "90-97-1", "cn_name": "4,4'-\u4e8c\u6c2f\u4e8c\u82ef\u7532\u9187", "en_name": ["4,4\u2032-Dichlorobenzhydrol", "Benzenemethanol, 4-chloro-\u03b1-(4-chlorophenyl)-", "Benzhydrol, 4,4\u2032-dichloro-", "4-Chloro-\u03b1-(4-chlorophenyl)benzenemethanol", "Bis(p-chlorophenyl)methanol", "DBH", "4,4\u2032-Dichlorobenzhydrol", "p,p\u2032-Dichlorobenzhydrol", "DBH (degradation product)", "Bis(4-chlorophenyl)methanol", "4,4\u2032-Dichlorodiphenylcarbinol", "4,4\u2032-Dichlorobenzhydryl alcohol", "NSC 121779", "NSC 5250"], "SMILES": "C(O)(C1=CC=C(Cl)C=C1)C2=CC=C(Cl)C=C2", "physical_data": {"Molecular Weight": "253.12", "Molecular Formula": "C13H10Cl2O", "Melting Point": "94 \u00b0C"}}