{"cas_no": "90-98-2", "cn_name": "4,4'-\u4e8c\u6c2f\u4e8c\u82ef\u7532\u916e", "en_name": ["4,4\u2032-Dichlorobenzophenone", "Methanone, bis(4-chlorophenyl)-", "Benzophenone, 4,4\u2032-dichloro-", "Bis(4-chlorophenyl)methanone", "p,p\u2032-Dichlorobenzophenone", "4,4\u2032-Dichlorobenzophenone", "DBP", "DCBP", "Bis(4-chlorophenyl) ketone", "Di(p-chlorophenyl) ketone", "DBP (degradation product)", "Bis(p-chlorophenyl) ketone", "Di(4-chlorophenyl) ketone", "NSC 8787", "DCBP (ketone)", "4,4\u2032-DCBP"], "SMILES": "C(=O)(C1=CC=C(Cl)C=C1)C2=CC=C(Cl)C=C2", "physical_data": {"Molecular Weight": "251.11", "Molecular Formula": "C13H8Cl2O", "Boiling Point": "353 \u00b0C", "Melting Point": "147.5 \u00b0C"}}