{"cas_no": "90-90-4", "cn_name": "4-\u6eb4\u82ef\u7532\u9170\u82ef", "en_name": ["4-Bromobenzophenone", "Methanone, (4-bromophenyl)phenyl-", "Benzophenone, 4-bromo-", "(4-Bromophenyl)phenylmethanone", "p-Bromobenzophenone", "4-Bromobenzophenone", "4-Bromophenyl phenyl ketone", "p-Benzoylbromobenzene", "1-Benzoyl-4-bromobenzene", "Phenyl(4-bromophenyl)methanone", "NSC 59863", "4-(Phenylcarbonyl)-1-bromobenzene"], "SMILES": "C(=O)(C1=CC=C(Br)C=C1)C2=CC=CC=C2", "physical_data": {"Molecular Weight": "261.11", "Molecular Formula": "C13H9BrO", "Boiling Point": "350 \u00b0C", "Melting Point": "82.5 \u00b0C"}}