{"cas_no": "90-93-7", "cn_name": "\u56db\u4e59\u57fa\u7c73\u6c0f\u916e", "en_name": ["4,4-Bis(diethylamino)benzophenone", "Methanone, bis[4-(diethylamino)phenyl]-", "Benzophenone, 4,4\u2032-bis(diethylamino)-", "Bis[4-(diethylamino)phenyl]methanone", "4,4\u2032-Bis(diethylamino)benzophenone", "Michler's ethyl ketone", "p,p\u2032-Tetraethyldiaminobenzophenone", "4,4\u2032-(Tetraethyldiamino)benzophenone", "p,p\u2032-Bis(diethylamino)benzophenone", "4,4\u2032-Bis(N,N-diethylamino)benzophenone", "N,N,N\u2032,N\u2032-Tetraethyl-4,4\u2032-diaminobenzophenone", "EAB", "EAB (benzophenone)", "4,4\u2032-Diethylaminobenzophenone", "Ethyl Michler ketone", "EABF", "NSC 36365", "4,4\u2032-Bis(diethylamino)diphenyl ketone", "EAB-SS", "4,4\u2032-Bis(diethylamine)benzophenone", "Narucure CS", "4\u2032,4-Bis(diethylamino)benzophenone", "Doublecure EMK", "4,4-Bis(diethylamino)benzophenone", "JRCure EMK", "Kayacure EAB", "SB-PI 701", "Photoinitiator EAB", "Chemark DEABP", "Omnirad EMK", "Ethyl Michler's Ketone", "Photoinitiator EMK", "Chivacure EMK"], "SMILES": "C(=O)(C1=CC=C(N(CC)CC)C=C1)C2=CC=C(N(CC)CC)C=C2", "physical_data": {"Molecular Weight": "324.46", "Molecular Formula": "C21H28N2O", "Melting Point": "158 \u00b0C"}}