{"cas_no": "900-95-8", "cn_name": "\u4e09\u82ef\u57fa\u9521\u918b\u9178\u76d0", "en_name": ["Fentin acetate", "Acetic acid, triphenylstannyl ester", "Triphenyltin acetate", "Stannane, (acetyloxy)triphenyl-", "Stannane, acetoxytriphenyl-", "GC 6936", "ENT 25208", "Fentin acetate", "Lirostanol", "Tin triphenyl acetate", "TPTA", "Triphenylaceto stannane", "VP 19-40", "Brestan 60", "Liromatin", "Brestan", "Acetoxytriphenylstannane", "Batasan", "Phentin acetate", "Suzu", "Acetatotriphenylstannane", "(Acetyloxy)triphenylstannane", "Tinestan", "Sunitron A", "Brestanid", "Betafen", "NSC 76068"], "SMILES": "[Sn](OC(C)=O)(C1=CC=CC=C1)(C2=CC=CC=C2)C3=CC=CC=C3", "physical_data": {"Molecular Weight": "409.07", "Molecular Formula": "C20H18O2Sn", "Boiling Point": "60 \u00b0C", "Melting Point": "122-123 \u00b0C", "Density": "1.55 g/cm\u00b3 @ Temp: 20 \u00b0C"}}