{"cas_no": "90004-94-7", "cn_name": "4'-\u6eb4-2'-\u785d\u57fa\u82ef\u4e59\u916e", "en_name": ["1-(4-Bromo-2-nitrophenyl)ethanone", "Ethanone, 1-(4-bromo-2-nitrophenyl)-", "Acetophenone, 4\u2032-bromo-2\u2032-nitro-", "1-(4-Bromo-2-nitrophenyl)ethanone", "4\u2032-Bromo-2\u2032-nitroacetophenone", "1-(4-Bromo-2-nitrophenyl)ethan-1-one"], "SMILES": "C(C)(=O)C1=C(N(=O)=O)C=C(Br)C=C1", "physical_data": {"Molecular Weight": "244.04", "Molecular Formula": "C8H6BrNO3", "Melting Point": "70 \u00b0C"}}