{"cas_no": "9001-42-7", "cn_name": "\u0391-\u8461\u7cd6\u82f7\u9176", "en_name": ["alpha-Glucosidase", "\u03b1-Glucosidase", "Glucosidase, \u03b1-", "E.C. 3.2.1.20", "Maltase", "\u03b1-Glucopyranosidase", "Glucosidosucrase", "Glucosidoinvertase", "Glucoinvertase", "\u03b1-D-Glucosidase", "\u03b1-Glucoside hydrolase", "\u03b1-1,4-Glucosidase", "Aryl-\u03b1-D-glucosidase", "\u03b1-D-Glucopyranosidase", "Nitrophenyl \u03b1-D-glucosidase", "Transglucosidase L", "Maltase glucoamylase", "Transglucosidase", "Transglucosidase L Amano", "Brush border hydrolase", "alpha-Glucosidase", "Transglucosidase L 200G", "GH 57", "Alpha-D-Glucosidase"], "SMILES": "", "physical_data": {"Molecular Weight": "", "Molecular Formula": "Unspecified", "Melting Point": "154.3-155.3 \u00b0C"}}