{"cas_no": "9001-99-4", "cn_name": "\u6838\u7cd6\u6838\u9178\u9176 A", "en_name": ["Ribonuclease", "Ribonuclease", "Nuclease, ribo-", "E.C. 2.7.7.16", "Ribonucleic phosphatase", "RNase", "RNase A", "Ribonuclease A", "RNase I", "Alkaline ribonuclease", "Pancreatic ribonuclease", "Alkaline RNase", "E.C. 3.1.4.22", "EC 2.7.7.16", "RNAase", "EC 3.1.4.22", "Alk. ribonuclease", "Alk. RNase", "Interleukin 2 mRNA-selective ribonuclease", "RNase B", "EC 3.1.27.5", "E.C. 3.1.27.5", "Gigantin", "Ribonuclease B", "Keratinocyte-derived RNase-like factor", "Pancreatic RNase", "Lactoribonuclease", "RNase 1", "RNase ONE", "Nuclease RP-1", "E.C. 3.1.26.1", "E.C. 3.1.26.2", "Amphinase", "R 5500", "Ribonuclease S", "RNase S", "Nuclease Amano E", "EC 3.1.26.2"], "SMILES": "", "physical_data": {"Molecular Weight": "", "Molecular Formula": "Unspecified", "Melting Point": "243 \u00b0C (decomp)"}}