{"cas_no": "9001-98-3", "cn_name": "\u51dd\u4e73\u9176", "en_name": ["Rennin", "Rennin", "Chymosin", "E.C. 3.4.23.4", "E.C. 3.4.4.3", "EC 3.4.23.4", "Chymogen", "Maxiren", "Aniren", "Renninomezenterin", "Rennase", "Lab", "Abomasal enzyme", "Milk-clotting protease", "Stamix 1150", "Maxiren 600", "EC 3.4.4.3", "FAR-M"], "SMILES": "", "physical_data": {"Molecular Weight": "", "Molecular Formula": "Unspecified", "Melting Point": "225-227 \u00b0C"}}