{"cas_no": "9002-81-7", "cn_name": "\u4f4e\u805a\u7532\u919b", "en_name": ["Polyformaldehyde", "Poly(oxymethylene)", "Polytrioxane", "Polyformaldehyde", "Poly-s-trioxane", "Takafest", "Tenac 7010", "Tenac 3010", "Tenac PT 300", "Poly(1,3,5-trioxane)", "Tenac 5010", "Formaldehyde, homopolymer", "1,3,5-Trioxane, homopolymer", "Polymethylene oxide", "Tenac 3013ABK", "Polymethanal", "F 20 (polyoxyalkylene)", "F 20", "100P", "Tenac LA 543", "LA 543", "Tenac H 5010", "Delrin 111PF"], "SMILES": "C(O*)*", "physical_data": {"Molecular Weight": "", "Molecular Formula": "(CH2O)n", "Melting Point": "170-172 \u00b0C", "Density": "1.425 g/cm\u00b3 @ Temp: 23 \u00b0C"}}