{"cas_no": "9002-93-1", "cn_name": "\u805a\u4e59\u4e8c\u9187\u5355\u8f9b\u57fa\u82ef\u57fa\u919a", "en_name": ["Polyethylene glycol mono(4-tert-octylphenyl) ether", "Poly(oxy-1,2-ethanediyl), \u03b1-[4-(1,1,3,3-tetramethylbutyl)phenyl]-\u03c9-hydroxy-", "Glycols, polyethylene, mono[p-(1,1,3,3-tetramethylbutyl)phenyl] ether", "Phenol, p-(1,1,3,3-tetramethylbutyl)-, monoether with polyethylene glycol", "Antarox A 200", "(p-t-Octylphenoxy)polyethoxyethanol", "\u03b1-[p-(1,1,3,3-Tetramethylbutyl)phenyl]-\u03c9-hydroxypoly(oxyethylene)", "Polyethylene glycol p-octylphenol ether", "Triton X 165", "Triton X 305", "Polyethylene glycol mono[p-(1,1,3,3-tetramethylbutyl)phenyl] ether", "Triton X 405", "Triton X 100", "Triton X 45", "OPE 30", "Polyethylene glycol mono(p-tert-octylphenyl) ether", "Polyethylene glycol mono(4-octylphenyl) ether", "Polyethylene glycol p-tert-octylphenyl ether", "Triton X 102", "Triton X 705", "Poly(oxyethylene) p-tert-octylphenyl ether", "Polyethylene glycol mono(4-tert-octylphenyl) ether", "Polyethylene glycol p-(1,1,3,3-tetramethylbutyl)phenyl ether", "Polyethylene glycol p-octylphenyl ether", "Triton X 35", "Polyoxyethylene mono(octylphenyl) ether", "Polyoxyethylene (13) octylphenyl ether", "Polyoxyethylene (9) octylphenyl ether", "Preceptin", "Hydrol SW", "Ortho-Gynol", "p-tert-Octylphenoxy polyethoxyethanol", "NOP 90", "Texofor FP 300", "Koromex II", "Polyethylene oxide-p-tert-octylphenyl ether", "Polyoxyethylene glycol-p-tert-octylphenyl ether", "Polyethylene glycol p-tert-octylphenol ether", "TX 100", "TX 305", "TX 102", "Triton X 101", "Iconol OP", "TX 405", "Triton X 15", "Triton X 705-70", "Triton X 114", "Photo-Flow 200", "Anapoe X 114", "Octoxynol 5", "Nonidel P 40", "Triton 100", "Polyoxyethylene (10) octylphenyl ether", "X 405", "TX 35", "Triton X 10", "Criton X 100", "X 100", "X 305", "Coulter Dispersant IA", "Surfac OP 30", "Surfac OP 5", "Polyethylene glycol octylphenol ether", "Intra-Cell", "Anapoe X 100", "Triton X 105", "Lutensol OP 10", "Surfonic OP 120", "TOP 10", "OPE 4", "p-tert-Octylphenoxypolyoxyethanol", "Triton X 209", "TX 165", "FP 300", "Dow 405", "Octoxinol 9"], "SMILES": "C(CC(C)(C)C)(C)(C)C1=CC=C(OCCO)C=C1", "physical_data": {"Molecular Weight": "", "Molecular Formula": "(C2H4O)nC14H22O", "Boiling Point": "6 \u00b0C", "Melting Point": "&gt;350 \u00b0C (decomp)", "Density": "1.065 g/cm\u00b3"}}