{"cas_no": "9002-91-9", "cn_name": "\u805a\u4e59\u919b", "en_name": ["Acetaldehyde, homopolymer", "Acetaldehyde, homopolymer", "Acetaldehyde, polymers", "Polyacetaldehyde", "Metaldehyde", "Acetaldehyde polymer", "Limovet", "Limax", "Slugit", "Meta", "Polyethanal"], "SMILES": "C(C)=O", "physical_data": {"Molecular Weight": "", "Molecular Formula": "(C2H4O)x", "Melting Point": "165 \u00b0C"}}