{"cas_no": "9002-04-4", "cn_name": "\u51dd\u8840\u9176", "en_name": ["Thrombin", "Thrombin", "Thrombase", "E.C. 3.4.4.13", "E.C. 3.4.21.5", "Thrombofort", "Thrombin-C", "EC 3.4.21.5", "Tropostasin", "Blood-coagulation factor II, activated", "Blood-coagulation factor IIa", "Factor IIa", "\u03b3-Thrombin", "Thrombostat", "Thrombin JMI", "Thrombinar", "Thrombin II", "Evithrom", "Thrombin/Factor IIa", "Factor 2a", "BP 25432", "T 7513-500UN", "Alpha thrombin", "\u03b1-Thrombin", "\u03b2-Thrombin", "Beta-Thrombin", "Coagulation factor IIa", "FIIa", "Proteins, FIIa", "Gamma-thrombin", "MeSH ID: D013917"], "SMILES": "", "physical_data": {"Molecular Weight": "", "Molecular Formula": "Unspecified", "Melting Point": "21.3 \u00b0C"}}