{"cas_no": "9003-35-4", "cn_name": "\u6c34\u6eb6\u6027\u915a\u919b\u6811\u8102", "en_name": ["Formaldehyde-phenol copolymer", "Formaldehyde, polymer with phenol", "Phenol, polymer with formaldehyde", "Kerite (polymer)", "Renoterm 67", "Phenol-formaldehyde resin", "Phenol-formaldehyde polymer", "Phenol-formaldehyde condensate", "BRLY 1215", "Ironsides 1111", "Formaldehyde-phenol resin", "Resinox 773", "ATM 2", "Corephenit HB", "Corephenit", "FL 1 (phenolic resin)", "FO 80", "Formaldehyde-phenol polymer", "Rousselot 75.00", "FKP", "FFR", "Alpit", "Phenodur PR 897", "Novolak 18", "ATM 1", "AW 1", "BRL 2741", "BRPA 5570", "BRR 5555", "BSL (phenolic resin)", "Cellobond J 1010", "CTL 91LD", "Durez 12686", "Durez 12687", "F 50 (phenolic resin)", "FRP 1A", "I 21-22", "K 15-2", "K 21-22", "MILR 9299-II", "Modofen 53", "Modofen 56", "P 3-1", "P 5-2", "Phenodur PR 141", "Resol 300", "RFN 60", "RI 4009", "SBS 1", "SNK 2-27", "Tegofilm M 12B", "TsNIIF", "Varcum 2406", "VFT", "VIAM-B 3", "Voloknit VL 2", "Pololit E", "MDPV", "VRB", "Resopen", "Corephenit HBZ", "FK 20", "KDFF", "Kaproplast KSG", "SBS 11", "FFB", "Foundrez 23-703", "Rezocol", "Kreodur", "Retinax FK 16L", "FRV 1", "ZhN", "FRV 4", "DN", "R 300", "Albertol 626L", "VW 65059", "Bakelite 207", "Bakelite 222", "Tegocoll DO 1", "ZkN", "K 18-2", "LBS 3", "RA 51", "N 1320", "K 4", "NS (resin)", "TS (resin)", "K 18", "Bakelite BRL 2760", "18U", "DPK", "CR 9357", "Noburit HH", "Phenodur PR 722", "Novogen P 40", "Kauresin 250", "FK 24A", "6KKh1B", "Vulkadur A", "Novolak 18u", "R 10993", "Heresite", "AG 4B", "AG 4C", "PM 932", "M 0", "RP 902", "SBS (phenolic resin)", "Alnovol 844K", "K 17-2", "VIAM-B", "Iditol (polymer)", "ZhB", "F 110", "Cellobond J 1990/60", "2P1000", "Caproplast", "Kaproplast", "Duroplast 9001", "Cascophen W 166", "W 166F", "SFK 2", "SF 339", "PF 541", "PF 544", "Amres 5581", "Kaproplast KS", "MP 120 (phenolic resin)", "K 4 (phenolic resin)", "Phenodur PR 101", "R 2 (phenolic resin)", "BLS", "BKS 2600", "FRP 5", "Rezopen", "SF 010", "Rezokol", "SP 8855", "Bakelite 1003", "Varcum 5485", "Bakelite BRL 1100", "Durez 7421A", "Plyophen 5010", "TS", "S 1", "ATM 2 (phenolic resin)", "FO 64", "OF 1", "AG 4V (phenolic resin)", "BSL", "M 1", "SBS", "FL 1", "R 2", "Porofen FSzG 2", "FK 161", "Porofen FF 1", "Porofen F 1-36", "UBF", "Cerac 303", "Cerac 312", "LBS 1", "101M", "KAST-V", "Cellobond J 1006W", "Retinaks FK 24a", "STEF", "K 18 (polymer)", "Vilares 5", "FP-B", "AF 3T", "Bakelite 433", "Textolite KAST-V", "NS", "BZh 3", "SPLBS 1", "SP 18 (polymer)", "LARS 5", "CP 152C", "Bakelite 3087", "K 18-2FG", "LBS 9", "Kerite", "VGS 18", "Metallogen AT 3", "Aerophene 0808", "BRPE 4035", "FPF 1F", "Alnovol PN 429", "BZh 1 (phenolic resin)", "SBS 1 (phenolic resin)", "Iditol Extra", "HP 203N", "HP 607N", "1000WS", "Dorolac IX", "Bornum 6101", "SF 015", "SF 241", "SF 015M", "BRZ 7541", "PB 2V", "LATOS 31", "AG 4S", "Fenopreg", "LT", "Bakelite BRRE 5833", "Bakelite BRZ 7541", "DSV 4R2M", "FNSL", "NSB 153", "NTK 246", "NOB 246", "NSB 146", "Phenodur PR 281", "DSV 4-2R2M", "Durez 14000", "DS 9-2816", "Bakelite R 10993", "K 124P50", "Koroset", "E 14", "IMC Self-Set 130", "Chem-Rez 480", "Chem-Set 700P", "FRV 1A", "K 124-38", "Resin LARS", "LARS", "Si 14E", "FRA", "SF 3024B", "S 1 (phenolic resin)", "LAF 1", "P 42", "Chembond Cerac 312", "SFZh 3016", "SF 010A", "Bakelite TP", "AG 4W", "Resinox 753", "FL 03K", "Sumilit PR 9300", "Porofen S", "Formalin-phenol copolymer", "AST 2A", "Vx 2-090-68", "Vx 4-080-34", "Fenoform 31-14P", "Fenoform 12P", "Fenoform 1H/P", "FFS 01", "T 77 (phenolic resin)", "Arzamit 5", "Plyophen TD 2307", "Plyophen J 303", "E 12", "SF 50", "VP 13N", "Resophene 71DAS", "RSF", "LT (polymer)", "E 12 (phenolic resin)", "Sirfen 1025", "Sirfen 1027", "Oktofor O", "FRV", "Durez 12763", "RCI 25-114", "LBS", "Umaform LV 1", "SF 260", "BZh 8", "Bakelite R 19595", "GSP 32", "Fenolit 43", "Poltec 2", "F 5243", "Fenokol", "Umaform B 115", "F 20", "F 5250", "F 5215", "Umaform B 116", "Umaform LE", "Umaform TVD", "BLS 2700", "FRP (polymer)", "FRP", "VP 24N", "U-Loid PL 250", "SF 011", "P 42 (phenolic resin)", "ATM 1T", "Sirfen N 3", "FFS-K 124", "SFZh 309", "SFKh", "Methylon 11", "BZh 4", "SFP 012A", "RSF 3043", "MP 120HH", "SFZh 3012", "MP 120H", "TSKGS 75-90", "SF 480", "F 50", "Bakelite CKR 2400", "Bakelite 2432", "Phenodur PR 121", "Phenodur PR 373", "Phenodur PR 285", "SFZh 3014", "MNG-FF", "TR 18176", "Plyophen TD 2302", "F 5238", "WR 40AS", "Alnovol PN 430", "GSP 400", "WR 40", "F 47", "W 31-46B", "W 31-54B", "W 31-131C", "RSF 3040", "Bakelite R 5468/1", "Bakelite R 10840", "MR 800N", "LBS 4", "LBS 20", "FP-RN 7", "E 2-330-02", "F 6-337-67", "VKh 1-090-34", "U 2-301-07", "U 1-307-07", "SP 342-02", "O 3-010-02", "Zh 2-010-60", "E 1-340-02", "RN 7 (phenolic resin)", "SF 0112", "Arofene 700", "Uranol L 9", "Colloid 8440", "Varcum 24-655", "Varcum 29703", "Plenco 402", "OFPR-II", "OFPR 2", "SF 3024B20", "Basyntan M", "SF 100", "SF 0116F", "SF 0112A", "Bakelite 882712", "Peracit 5044", "Peracit 5061", "Bakelite 881712", "Peracit 5048", "Bakelite 221834", "Bakelite SP 222-25/40", "Peracit 5046", "Peracit 5042", "Bakelite SP 222-18/26", "80FV", "Bakelite SP 222-14/17", "J 1011H", "J 1008H", "Bakelite 887912", "Resinox 7280", "ATM 10", "Haveg H 41N", "AG", "Hitanol 4020", "Umacol B", "AG (phenolic resin)", "SFZh 3037", "Phenodur VPW 9340", "Mitsui Toatsu 2000", "K 6", "KHD III", "SLK 621", "Rezotsel", "K 6 (polymer)", "Rezocel", "PL 3812D", "SF 0119", "AV Lite 450M", "SFZh 3032", "SFZh 3013", "SFKh 3013", "SFZh 3024", "Gumifen 11", "SF 3021", "FFO 1", "FFO 2", "Koroset A", "Fiberite MXG 6070", "MPC-S", "MPC-R", "SF 262", "Plastasol L 47N", "Resinox 594", "Bakelite BLS 2700", "GP 5137", "Cascophen PC 100", "Varcum 22-655", "SPF 012", "Uravar 75778", "BRL 2760", "SF 121", "SF 104", "80FU", "MY 106", "Zh 5-010-78", "S 1-25", "BV 01", "FL 2 (phenolic resin)", "FL 2", "SFP 011", "550PL", "PS 2178", "Haveg AF", "Phenorez PB 71DA", "WR-AS", "Sumilit PC 1", "MS 7814", "PN 80", "Fenokol 43", "FX 101", "Umaform 116", "F 5245", "Plastatherm 2355", "FFS 79", "Resitop PSK 2225", "Resitop PSK 4300", "Tegocoll DO 2", "SFN 2", "Delta Kure Resin", "ES 31B2", "Resitop PSF 4224", "Shonol BRG 557", "Foundrez 96-880", "PSM 2240A", "Mitsui Toatsu 3000", "Phenolic resins, phenol-formaldehyde copolymers", "R 300 (phenolic resin)", "FK 74", "SFZh", "LB 21", "LB 2 (binder)", "LB 2", "BZh 1-4559-71", "SFP (polymer)", "SFP 011A", "SFZh 305", "IF", "SFP", "Paraformaldehyde-phenol copolymer", "WR 36AS", "IF (polymer)", "SP 690", "Acme Super Set 970", "EG-FF", "Resitop PSK 2320", "Resinox SD 7280", "PR 51470", "Bellpearl R 900", "Bellpearl S 970", "Resitop PL 2211", "Uravar L 9", "F 20 (phenolic resin)", "PN 430", "FPF 1M", "SF 012", "Alnovol PN 320", "Novolak 70", "Bakelite 92113", "Bakelite 92055", "Rousselot 7515", "FL (phenolic resin)", "Bellpearl S 930", "Bellpearl R 800", "Durez 50000", "SF 381 (phenolic resin)", "SF 381", "Rezine 75-30", "Plastasol L 47", "Bakelite SW 361", "Plenco 650", "Shonol BKS 316", "Novolak 1000", "Sumilit PR 50716", "SK 3 (phenolic resin)", "SK 3", "Resitop RSF 4261", "Phenodur PR 217", "Resitop PSF 4261", "Mitsui Toatsu 1000", "Cascophen SP 5520D", "Sumilit PR 1050", "BRG 557", "Phenodur 217", "X 34-45DF006", "ITD 320Z", "FSF 65", "ACL 141", "PSF 4261", "SFP 0119A", "Resitop PSK 4261", "Sumilit PR 50731", "Borofen DX 26", "Tungophen B", "BZh 2", "M 2", "U-Loid PL 283", "BLS 362", "FFK 39", "FL 5280", "SF 0113", "PSF 4224", "SF 3021s", "Tamanol 745", "PS 2176", "PS 4113", "PSM 2207", "PSM 4448", "PL 2975", "Sumilit PR 10694", "Polofen FE 18-1", "Polofen F 1", "PL 2640", "Unilam ABT", "Printan G", "Novolak 2000", "H 41N", "GP 553", "BRG 556", "R 1974", "Durez 12704", "Resine 75-30", "Neoresin PX 310", "F 47 (polymer)", "U-Loid PL 281", "LBS 16", "Sumilit PR 50235", "SFP 118", "FK 75", "Hitanol HP 607N", "Shonol BRG 556", "PN", "BRG 555", "Shonol BRG 555", "PN (phenolic resin)", "Fenoterm", "Cerac 6010", "PR 50731", "Bakelite 7716", "TD 2254", "Plyophen TD 2254", "Fenokol A", "Cascophen 3128M", "K 50 (phenolic resin)", "KF 74", "PS 2207", "K 50", "HX 5211PF", "H 1S", "PF 109", "HRJ 652", "Finetex PF 20", "F 110 (polymer)", "Chemplex 775", "E 14 (phenolic resin)", "GP 3195", "NRV 125", "Peracit A 177", "Selphen OG 2000", "Selphen OG 1000", "Sumilit Resin PR 50622", "Resitop PSM 4228", "Sumilit PR 50622", "Fenakol 43", "RP 912", "Suspendol PPK", "SF 29", "Sintek 2", "Resitop PL 2207", "TD 2093", "Varcum TD 2093", "K 266", "Tamanol PA", "FRV 1 (phenolic resin)", "Resitop PSM 6820", "Resitop PSM 4261", "PN 46", "PN 152", "Phenol-formalin copolymer", "CD 208-34A", "CD 208-34B", "Fiberite MXB 360", "AV Lite", "Vulkadur RB", "SP 18", "GP 2074", "Bellpearl S 890", "BLS (polymer)", "PN 154", "BD 909", "GP 5415", "Fenokol 35", "K 641", "Fiberite K 641", "Formaldehyde-phenol copolymer", "Tamanol P 180", "Cascophen SP 5300D", "TD 2307", "M 1 (phenolic resin)", "HP 401SD", "IB 215", "PI 260", "F 24", "PZR (phenolic resin)", "HRJ 2210", "RN 7", "Tackirol 160", "Sumilit PR 51470", "SF 341", "S 191", "SFO 1", "R 8821/1", "Cellobond J 2015A", "Fenolit R 1", "SFZh 3061", "SFZh 3066", "SFZh 339", "T 77", "P 65 (phenolic resin)", "Shonol PCL 681", "P 65", "GP 2804", "SF 29 (phenolic resin)", "Novaset 735", "PSM 4261", "PL 2211", "337T28", "MPD 8515", "Phenolite TD 2254", "Cascophen PB 306", "Alnovol 320K", "Shonol BRG 559", "F 24 (phenolic resin)", "PR 50716", "Phenolite PE 203", "Phenolite TD 2090P", "Phenolite PE 205", "BB 062", "Cascophen C 271", "BRG 559", "Sumilit Resin PR 51470", "Rutaphen GC 75", "Resorciphen 2074A2026B", "Sumilit PR-Q 221", "Sumilit PR-Q 121", "PF 750", "Phenolite TD 2090-60M", "RB 125S", "Shonol BRN 2120", "Epicure DX 200N60", "BRN 2120", "1940H", "Durez 175", "Varcum 29219", "PR 311", "Durez PR311", "RSF 014", "PR 53120", "Resitop PS 2607", "KRD-HM 2", "Umaform F", "Fenokol 40", "Fenochem 35", "Novokol E 15", "HRJ 1166", "GP 2037", "N 16 (novolak)", "FD 14", "Cascophen 1701", "N 16", "Retinax FK 24A", "Sumilit Resin PR 50731", "Retinaks FK 16L", "GP 5833", "Resi-Stran", "Fiberite CMXR 6055", "Oshika Resin D 17", "D 17 (polymer)", "D 17", "Plyophen TD 2093", "BZh 1", "Phenolite TD 2093", "CS 100", "FL", "CS 100 (phenolic resin)", "Isocure LF 305", "Plenco 11956", "Plenco 21483", "R 17620", "Tamanol 758", "RFL 3", "NKTV-A 62", "HF 1 (phenolic resin)", "HF 1", "Alnovol PN 844", "Ucar CK 1635", "Ucar BKR 2620", "SF 141S", "PR 100", "Phenolite 5010", "GP 6777", "Ablaphene RA 101", "RA 101", "OCF-RE 131", "SD 1731", "Durite SD 1731", "Aerofix N", "Gascofix NY", "Oshika Resin D 100", "Casconol PF 1555", "Sumilit PR 940", "GP 144D64", "Borofen DL 702", "Borofen BPF 70", "Rezofen CS", "PF 2-0823", "Bakelite LG 724", "Novolak LG 724", "N 101", "N 101 (phenolic resin)", "Arofene 72155", "LG 724", "Neosyn CPP 48", "BB 143", "Cascophen W 91B", "Resitop PL 4708", "BRG 85", "HRJ 11722", "SG 3100", "VP 300N", "Tembec CL 300", "PF 270", "PN 320", "FRD 5002", "Tilen A", "Oshika Resin PB 1310", "Atanor R 619", "Atanor R 435", "R 619", "R 435", "SD 140", "PR 50235", "Bakelite 8978FL", "HRJ 11482", "SF 100 (phenolic resin)", "BFOS", "Araldite K 6", "Ucar GP 5200", "Kemfix HB 96/200", "CB 8081", "Sylvic DUO-A 133", "HPN-X", "Fenolit TL 706", "Fenolit TL 706/3", "Umaform MVU", "Umaform B 118", "Ebolit FF", "Sumiresin PR 50235", "RL 628", "GP 5479", "HRJ 12700", "Phenolbil", "K 48", "UKF", "Cascophen PR 511", "K 48 (phenolic resin)", "UBF (phenolic resin)", "Sumilit HPN-X", "LBS 3 (polymer)", "LBS 1 (polymer)", "Phenolite TD 4304", "Interac 1168", "T 266", "T 214", "T 110", "T 250", "O 203", "O 122", "Hitanol 3013", "SF 50 (phenolic resin)", "XR 14277A", "T 110 (phenolic resin)", "T 214 (phenolic resin)", "P 963", "101M (phenolic resin)", "R 8210", "HF 3", "SFP 470", "A 407-901", "Cellobond J 1002G", "GP 3121", "FSJ-III", "Peracit 4536K", "XR 4364", "Acme Flow 2012", "SFP 011L", "Arrotex 2035", "FFB (phenolic resin)", "Cascophen OS 707", "386ST", "GSP 32 (phenolic resin)", "Cascophen AL 5309", "Durite SD 446A", "BPR 572A", "BKS 316", "Resi-Lam GP 5236", "GP 5236", "GP 4445", "CB 050", "PRN 1200", "CB 050 (conductive polymer)", "SFP 015A", "Phenol-formaldehyde copolymer", "SFZh 306", "SF 14", "GIPK 114", "FUT", "JDW 2", "FF 65S", "SD 1708", "MER 7930", "SFZh 3102", "Phenoset 5001", "Akrochem P 86", "Netbond FRB", "SVF 3", "STF 2", "ATF 1", "UVF 3", "UTF 1", "ATF 1 (phenolic resin)", "PR 100 (phenolic resin)", "BRWE 5555", "BRWE 5853", "Plenco 12631", "LBR 6", "PR 940", "J 60/2325L", "S 205", "SF 022", "OF 1 (phenolic resin)", "SF 14 (polymer)", "FPR 520", "Cascophen 433-156", "AW 1 (binder)", "KPE-F 2000", "KPH-F 2001", "KPH-F 2002", "HF 1M", "ST 1138", "Shonol BRP 572A", "Univeks C", "GP 5778", "Varcum TD 2090P, homopolymer", "L 252G", "Varcum TD 2090P", "P 180", "O 250 (polymer)", "O 251", "O 250", "SPF 011L", "Bakelite BB 7/138", "SFZh 304", "JDW 3", "JDW 1", "KNB 100PL", "KPD-L 777", "FDP", "SFZh 3027", "PF 307", "PFC 04", "SP 2611", "TD 2090-60M", "PF 329", "020-210-75SK", "Zh 13-010-89", "O 20-210-75SK", "E 39-0127-48", "SFZh 301", "LBS 29", "Durez 7716", "7510P", "SFZh 3027B", "Resitop PL 4667", "AML Resin AMCR 01", "AMCR 01", "SF 014", "SF 010M", "FS 117", "SF 3021K", "UVS 10T", "UVS 350T", "IZ 6635", "Prefere 13B024", "Santolink EB 560", "Phenolite J 325", "J 325", "Plyophen J 325", "Dynosol S 175", "PF 76", "PN 80 (phenolic resin)", "SFZh 302", "Ekoakoru", "Sumilit Resin PR 311", "Sumilit PR 311", "Bakelite LB-SP", "Cellobond 85S", "Bakelite 2506HW", "Bakelite 1842HW", "PF 330", "R 330 (phenolic resin)", "R 330", "Bakelite PF 6520LB", "LPF 101K2", "HPC 51", "W 800C", "L 998", "Bakelite PF 0790K01", "PF 336", "Polofen FF 1WHG", "F 2450", "PHS 600", "Shonol BKS 377F", "Resitop PL 4646", "PG 700", "PG 700 (phenolic resin)", "Phenolic resin 2123", "Sumilit PR 217", "PR 217", "Bakelite LBS 5", "Carbolic acid-formaldehyde copolymer", "Resol 472", "R 472", "Baqphen 4051-3", "Phenolic resin 2130", "PL 2207", "Cascophen BD 4503", "Cascophen BD 4507", "Cascophen BD 4509", "BZh 6", "BZh 3A", "Sumilit Resin PR 50235", "BF 4N", "EX 262E", "SD 909A", "SD 672D", "Cascophen W 3154", "GP 594G04", "GP 548G51", "PS 2607", "W 3154", "FDU 14", "Prefere 14J021", "FDU 15", "Prefere 72-6410M", "Prefere 70-7012L", "Prefere 70-7530L", "PR 281", "GP 3110", "GP 5102", "Durite 1731", "SFZ 3013VL", "SFZ 3014", "Novolak EXP-E 069", "Dynea 13D036", "SMD 30207", "PF 328", "Cascophen 1770TO3", "TSP-F", "MA 15", "GP 205C", "Dynea 1385C", "Dynea 1355F", "PF 785", "13B122", "Polycol N", "Amberol T 137", "Cascophen OS 703A", "Cascophen O 303D", "SF 030A", "Borofen DX 30", "GP 155C42", "Phenol-paraformaldehyde copolymer", "Rhenosin RB", "Sumilit PR 5064", "AG 4V", "PSK 2320", "BF 01", "Modofen 54S", "Alnovol PN 350", "Resital 6358/1", "Dynea 13B410", "NVG 2000", "SFZh 3031", "Lignofen 15/2", "LV 70S", "W 1601", "GP-RPPY 5779", "GP 5779", "Durez 29095", "BB 634", "Sumilite Resin PR 217", "E 97783", "Dynea E 97783", "Bakelite 1279HW", "Bakelite PF 1804PS", "SuperEko NFC", "HY 2000", "WoodWeld GP 190073", "WoodWeld GP 145C48", "Plenco 11936", "PF 8010", "Durite SC 830A", "Ablaphene RS 101", "HW 1842", "HRJ 12362", "Sumilite PR 217", "MP 120", "Imprezin 01", "SFF 3031", "ReziCure 3057", "Prefere 4976", "Fenokol UA", "MXB 360", "Phenodur PR 612/80B", "Cascophen SLPF 55V2", "Sumilite Resin PR 51470", "PF 201", "Poly[[(phenylmethoxy)phenylene]methylene]", "Sumilite Resin PR 50716", "Abifen 130D", "SFZh 3011", "Arofene 8426ME63", "Resibond GP 169C21", "GP 169C21 Resi-Bond", "Corrodur 7839", "FL 5111", "Durite SD 672D", "BCW 2022", "GP-RPPY 5757", "Borofen B 1606A", "Cascophen BCW 2021", "Cascophen GD 3-147", "Cascophen GD 3-146", "Sinotherm 8426", "Plenco 14695", "PR 285", "Muromac WAP 9211", "Dynea 4976PF", "Askocure 300EP3901", "Avecure 330", "SFZh 323", "CR 4871D", "SH 1098", "Sumilite Resin PR 940", "Cellobond PA 2276", "PA 2276", "GP 486G34", "Resitop LVR 8210", "2E4MZ-CN-Phenolic resin 2130 copolymer", "Pli-O-Phen J 325", "PF 190080", "JA 10", "HRJ 12952", "HN 7310A", "Phenolite J 235", "PF 162510", "FRV-EM", "Resi-Bond 6773", "Longlife 1120", "SPWC 190054PF", "TD 4304", "Woodweld 190080", "Resi-Stran 240C11", "SL 2005", "Reslink GTC 50", "Apinee 80R", "FRJ 425", "Prefere 16J536", "RL 43003", "Cascophen P 6619", "GPR 5815", "Formaldehyde-phenol-2-phenylimidazole copolymer", "STN 150", "PF 2", "Phenalloy 2870", "PH 4055", "J 871", "PF 0235DP", "Resin 2162", "Resin 2173F", "Fenotam GR 326", "PF 16L510", "PF 2512", "Resol A", "Novolac Z", "Ribetak R 7515P", "Cascophen 54774TJ", "T 383J", "R 330U", "GP 240C11 Resi-Stran", "GP 190C80 Woodweld", "Polifen 47", "SFP 012A3", "Prefere 72-5648L", "Prefere 91-5701Lx", "Phenolic resin 2127", "Prefere 72-5593M", "CR 4510", "WE 1029", "F 3620-3", "RT 1201", "KM 220J", "Lignofen G 3P", "Hexion 13BO33", "D 26GPB", "Bakelite 8505F", "R 7515P", "Plenco 12114", "Bakelite PF 6510", "Bakelite PF 6680", "EL 03", "Plenco 14845", "8020-65M", "PF 8020-65M", "Curaphen B 60", "SL 2201", "SFG 3014", "Primere 14J", "F 908 (phenolic resin)", "F 908", "NC 58", "SF 0121", "ST 2025", "Elaztobond A 250LP", "Resicare 3010", "Resicare 3015"], "SMILES": "C=O.OC1=CC=CC=C1", "physical_data": {"Molecular Weight": "", "Molecular Formula": "(C6H6O.CH2O)x", "Melting Point": "94 \u00b0C", "Density": "1.10 g/cm\u00b3"}}