{"cas_no": "9003-70-7", "cn_name": "\u805a\u82ef\u4e59\u70ef\u6811\u8102", "en_name": ["Divinylbenzene-styrene copolymer", "Benzene, diethenyl-, polymer with ethenylbenzene", "Benzene, divinyl-, polymer with styrene", "Styrene, polymer with divinylbenzene", "Benzene, ethenyl-, polymer with diethenylbenzene", "P 8D", "Divinylbenzene-polystyrene copolymer", "Polystyrene-divinylbenzene copolymer", "Polysorb 1", "Styrene-divinylbenzene polymer", "Synachrom", "Divinylbenzene-styrene polymer", "Chromosorb 102", "Divinylbenzene-styrene resins", "Diethenylbenzene-ethenylbenzene polymer", "HAP 1", "SDX 5", "MR 500", "Styrene copolymer with divinylbenzene", "KPN 258", "Chromosorb 101", "MCT 1", "Hitachi 3010", "Y 29/11", "Styragel", "Divinylbenzene-vinylbenzene copolymer", "Styrene-divinybenzene copolymer", "Shodex 801", "Styrene-divinylbenzene resin", "PRP 1", "HP 60", "Cekachrom 2", "Cekachrom 3", "PS 10t100", "PS 20t100", "PS 40t100", "Polysorb C", "Polysorb 40/100", "HP 01", "D 001X14", "Polysorb 4T", "Finepearl 3000F", "Polysorb S 60/100", "Polysorb S 40/100", "MOD 40/100", "CDR 10", "PLRP-S", "Divinylbenzene-styrene copolymer", "TVEX", "NGW 04", "GDX 101", "TSK G4000H", "Vinylsorb S", "Bonopore 7", "Pontybond", "TVEKS", "Poly(divinylbenzene-styrene)", "Polyacene SD", "Poly(styrene-divinylbenzene)", "PRLP-S", "Polyhipe X 20PV90", "Bio-Beads SX 2", "Bio-Beads SX 3", "Bio-Beads SX 4", "Bio-Beads SX 8", "Bio-Beads SX 12", "Source", "PS 1/85", "Polystyrene-divinylbenzene polymer", "Purasorb AP 250", "Polystyrene-DVB", "Styrene-DVB copolymer", "Staphyloid GS 30A", "Staphyloid GS 60A", "TX-ER 6", "Poros R 1", "Poros R 2", "Oligo R 3", "Gaskuropack 54", "D 005", "D 005 (catalyst)", "Poros 10R2", "Styrene-divinylbenzene copolymer", "Novabiochem 01-64-0022", "CSPO", "HP 01 (vinyl polymer)", "SX 713", "SGP 70C", "CS 1", "CS 1 (catalyst support)", "SGP 50C", "Hamilton PRP 1", "Polysorb C (copolymer)", "SDVB", "InertSep RP 1", "Aqusis PLS 3", "DVB 960-styrene copolymer", "Bio-Beads S", "JSR-SX 8743C03", "JSR-SX 8705P01", "SD 15H60", "Atoll XC", "Rexolite 1422", "Rexolite I", "Rexolite II", "Rexolite", "Rexolite 2200", "PolyVVFE", "JSR-SX 8743", "PL 1460-4707", "Poros 20R1", "Poly(styrene-co-divinylbenzene)", "Styrene-divinylbenzene-2,2\u2032-bipyridyl copolymer", "JSR-SX 8742-08", "SX 8742-08", "WDX 3", "WD 4", "Ganz Pearl GS 0605", "GS 0605", "JSR-SX 8743-08", "JSR-SX 8743-05", "Poly(styrene-co-DVB)", "Chemisnow SGP 150C", "SGP 150C", "HY 1 (adsorbent)", "HY 1", "HZ-PS 20SS", "HZ-PS 816", "HZ-PS 818", "HZ-PS 830", "Sunpak A", "Ganzpearl GS 1105", "Poros R 1-50", "Bio-Beads SM 2", "Bio-Rad SM 2", "Sprinbeads SN 110", "Polyspher PST 10", "DVBS", "XE 53BNGF", "Nanotex PF 032A", "Nanotex PF 082A", "PS 10V", "NDA 1800", "UniPS", "UniPS 40", "UniPS 30", "LX-MS 15", "LX-MS 30", "LX 20SS", "LX 316", "LX 261", "D 101 (styrene polymer)", "D 101", "Indion PA 800"], "SMILES": "", "physical_data": {"Molecular Weight": "", "Molecular Formula": "(C10H10.C8H8)x", "Melting Point": "270 \u00b0C", "Density": "0.9890 g/cm\u00b3"}}