{"cas_no": "9003-31-0", "cn_name": "\u805a\u5f02\u620a\u4e8c\u70ef", "en_name": ["Polyisoprene", "1,3-Butadiene, 2-methyl-, homopolymer", "Isoprene, polymers", "Polyisoprene", "Isoprene polymer", "Betaprene H", "Isoprene D", "Isoprene oligomer", "Poly(2-methyl-1,3-butadiene)", "Isoprene homopolymer", "Poly(2-methylbutadiene)", "Poly(isopentadiene)", "PIP (polyisoprene)", "PIP", "JSR-LIR 20000", "KM 4K1", "TR 301", "LIR 15", "Revultex Lan 960", "LIR 20000", "JSR-PIP 2", "H 07-119-04", "2-Methyl-1,3-butadiene homopolymer", "KL 10", "Sepolex IR 100H", "NMPI 400"], "SMILES": "C(C=C)(C)=C", "physical_data": {"Molecular Weight": "", "Molecular Formula": "(C5H8)x", "Melting Point": "64 \u00b0C", "Density": "0.96 g/cm\u00b3"}}