{"cas_no": "9003-01-4", "cn_name": "\u5361\u6ce2\u59c6\u6811\u8102", "en_name": ["Poly(acrylic acid)", "2-Propenoic acid, homopolymer", "Acrylic acid, polymers", "Acrysol A 1", "Acrysol A 3", "Acrylic acid polymer", "Nalfloc 636", "Acrylic acid resin", "OLD 01", "XPA", "Aron A 10H", "Acrysol AC 5", "Versicol E 15", "Dispex C 40", "R 968", "WS 24", "Good-rite WS 801", "PA 11M", "Revacryl A 191", "Good-rite K 702", "Junlon 110", "Versicol S 25", "Good-rite K 37", "P 11H", "WS 801", "PAA 25", "Viscon 103", "Synthemul 90-588", "Acrysol A 5", "Acrylic acid homopolymer", "Carboset 515", "Sopronyl", "Junlon 10L", "Solidokoll N", "NeoCryl BT 8", "Good-rite K 752", "Lyoprint TFA", "Lyoprint TFB", "Good-rite K 700", "Kayacryl H 32", "PK 24", "Euderm Grund 25A", "Acrysol LMW 20X", "Good-rite K-XP 10", "Good-rite K-XP 18", "Good-rite K 722", "Good-rite K-XP 11", "Colloids 119/50", "OLD 01V", "Primal A 1", "Rhoplex A 1", "Syntergent JF", "Jurymer AC 10L", "Jurymer AC 10LP", "Jurymer AC 10SH", "Jurymer AC 10P", "Jurymer AC 10H", "TB 1131", "PDS 76", "K-Sorb", "Aron 104", "Deoxylyte DY-A", "Poly(2-propenoic acid)", "Carboxypolymethylene", "Three Bond 1131", "Jurymer AC 106", "AS 7503", "Poly(acrylic acid)", "Jurymer AC 10", "Turfine P 20", "Arasorb S 100F", "Arasorb 750", "Junlon PW 110", "A 10LL", "PK 24 (polymer)", "RH-E", "Plex 5377L", "Plex 4783L", "Acrytex W 240", "Jurymer AC 10HP", "Hiprint DA", "F 443", "Polysol F 443", "Aquafeed 600", "AQ 3930", "Jurymer AC 10CSH", "PAA 45", "Lucidene 400", "NSC 7706:2", "Acumer 1530", "Carbopol ISX 1794", "Prisulon CR-F 60", "Colloid 209", "Acusol 445", "Lyoprint TFC", "PA 12", "PA 41", "PA 280", "AW 36", "Jurymer AC 10LHP", "PA 12 (polyacrylic acid)", "Acryl AG 1000", "Acryl AG 1100", "Acryl AG 1200", "Marwit K 1", "SER 1004", "Aron 10H", "Aqualic HL 580", "Aquatreat AR 7H", "NSC 91B", "HF 05", "Aquatreat AR 6", "AC 10H", "Hiviswako 304", "Aqualic AS 58", "Carbopol 340", "Cyagard 266", "Carbopol 679", "Aqualic HL 321", "Aqualic HL 415", "Carbopol EX 473", "Sharpe 9950", "Carboset GA 1594", "Junlon AC 10SH", "NeoCryl HX 72", "JIP 500", "Jurymer AC 10MP", "PAA", "Polyslip T 503M", "Aron A 30LL", "GC Conditioner", "Nacrylic 2550", "PA 280 (acrylic polymer)", "Aron A 10LL", "Jurymer AC 10M", "Glascol E 15", "Coatex DE 185", "Glascol E 7", "Jurymer 10SHP", "Alcosperse 409", "AS 58", "Geropon DA", "MC 810", "MC 810 (acrylic polymer)", "Narlex LD 29", "LD 29", "Diper 1227", "ASS 2", "Sanwet CM 5000MSP", "AC 10LP", "Jurymer AC 103AP", "A 10SL", "Acumer 9932", "Bevaloid 6778", "Carbopol 9420", "Aron A 10U", "PW 150", "Gran Up PC 121", "C 480", "Glascol S 19", "Polycryl A 10000-10A", "Carbochelate HM 10A", "HM 10A", "Jurymer AC 10SHP", "Glascol D 15", "QRXP 1629S", "QRXP 1513", "Alcosperse 465", "A 10H", "Sokalan 80S", "Sokalan PA 110S", "Sokalan PA 80S", "Alcosperse 602A", "Arespol", "HL 415", "Carbopol 9402", "Jurymer L", "Aqualic DL 400", "Accusol 440", "Alcoprint PTF-Z 328", "Eulysine S", "Jurymer AC 10LH", "K 752", "Retanal CLE 10", "Acumer 1540", "Junlon PW 111", "Sokalan PA 80-5", "QXL 1031", "AC 45", "PSA-HL 415", "Soolim PHP 1090", "Jurymer 108H\u03b1", "Aron HM 110", "Hydroplus", "GR-F", "Aron A 10", "Alcosperse 602TG", "XH-B", "Alcosperse 630", "GE 1903", "Glascol E 5", "X 310", "AQ 2559", "AC 10L", "Jurymer AC 10SL", "Jurymer A 10SL", "BS 9960", "BS 2150", "BS 960", "BS 985", "Duracone CSP", "Superclear 320N", "Good-rite 732", "Good-rite XP 44", "Good-rite XP 97", "Dispersant 5027", "Aqualic R-HL", "AC 10LHP", "Aqualic H-AS", "Syncol F 40", "Polyacrylic acid 5000", "Junlon PW 10", "HF 05 (acrylic polymer)", "Crilat X 1815AZ", "Levelol 892", "Levelol 896", "RayCryl 708E", "Polygel CK", "Polity A 540", "Aquatreat AR 260", "Jurymer AC 108H", "SN 630", "SN Thickener 630", "CP 110S", "AC 1261", "Syntran 8220", "Jurymer 10H", "Jurymer 8SH", "QXRP 1734", "PW 350P", "P 1600AA", "HA 4421", "Carbosperse K 752", "Acriflow 041S", "Degacryl 4779L", "Carbomer 340", "MTR 16H", "MTR 26H", "ZH-B", "Highholder 251", "Aqupec HV 501E", "KL 300", "KL 120B", "Acusol 402", "PAA 1000", "PAA 20EX", "Setalux 1757", "RL 100", "RS 100 (acrylic polymer)", "Aquatreat AR 4", "OP 301", "Degapas 8105S", "Tamanori G 37", "ZF 123SG", "Sokalan PA 25XS", "ZS 805F", "Junlon PW 160", "Aqualon AQU-D 5592", "Aron 15H", "Rheosolve D 5S", "RS 68P", "Synocure 866EEP75", "JWS 99K", "Standard PAA 1K", "P 10680D", "Aron AC 10SL", "Aron AS 7503", "Carbosperse K-XP 4", "Acusol 420NG", "QR 1629S", "Carbopol 990", "Jurymer AC 100L", "AZ 9001", "CW 881", "P 3981AA", "AC 106", "P 104270", "Julimer AC 10L", "RAB 51", "Aqualic EH 422", "Unicap K 45", "TG-SAP", "Acusol 944", "AC 10LHPK", "AC 10P", "Jurymer AC 10LHPK", "P 299190", "P 131658", "P 131657", "P 104272", "ESC 4955M", "2-Propenoic acid, homopolymer, compd. with 1-octanamine", "Octylamine-acrylic acid copolymer", "SF 001", "RT 96", "HE 102", "GS 211 (polyacrylic acid)", "GS 211", "Degapas 4104S", "Aqualic L-HL 415", "TS 200", "SPA 09", "KemEcal 142PG", "1WX049", "Sino 9000", "AT-ET", "Synthalen KP", "P 822497", "P 44253", "P 11091", "P 3030 (acrylic polymer)", "P 3030", "CLPA-C 07", "D 113 (acrylic polymer)", "D 113"], "SMILES": "C(C=C)(O)=O", "physical_data": {"Molecular Weight": "", "Molecular Formula": "(C3H4O2)x", "Melting Point": "95 \u00b0C", "Density": "1.270 g/cm\u00b3"}}