{"cas_no": "9003-42-3", "cn_name": "\u805a(\u7532\u57fa\u4e19\u70ef\u9178\u4e59\u916f)", "en_name": ["Poly(ethyl methacrylate)", "2-Propenoic acid, 2-methyl-, ethyl ester, homopolymer", "Methacrylic acid, ethyl ester, polymers", "Plexigum N", "Poly(ethyl methacrylate)", "Ethyl methacrylate polymer", "Lucite 2042", "Acrylbase MH 105", "Elvacite 2042", "Elvacite 2043", "Dianal BR 90", "BR 90", "PEMA", "Elvacite 2028", "Ethyl methacrylate homopolymer", "Hipearl D 100", "NeoCryl B 813", "Hipearl D 250E", "Poly(ethyl 2-methyl-2-propenoate)", "Super-soft", "Super-soft (new)", "D 100E", "D 350E", "EMA 35", "Hipearl D 250EL", "Trim-PEMA", "AKG 1.2", "Techpolymer EMA 35", "Hipearl M 5001", "Colacryl TS 1364/1"], "SMILES": "C(OCC)(C(C)=C)=O", "physical_data": {"Molecular Weight": "", "Molecular Formula": "(C6H10O2)x", "Melting Point": "245 \u00b0C (decomp)", "Density": "1.1 g/cm\u00b3"}}