{"cas_no": "9003-13-8", "cn_name": "\u805a\u4e19\u4e8c\u9187\u5355\u4e01\u919a", "en_name": ["Polypropylene glycol monobutyl ether", "Poly[oxy(methyl-1,2-ethanediyl)], \u03b1-butyl-\u03c9-hydroxy-", "Polypropylene glycol monobutyl ether", "Polyoxypropylene glycol butyl monoether", "Poly(oxypropylene) butyl ether", "Butoxypolypropylene glycol", "Polypropylene glycol butyl ether", "OPSB", "Poly(propylene oxide) monobutyl ether", "PPG-16 Butyl Ether", "Ucon LB 250", "PPG-14 Butyl Ether", "Polyoxypropylene monobutyl ether", "PPG-33 Butyl Ether", "Newpol LB 3000", "Desmophen 3500", "B 01/80", "Newpol LB 65", "Nissan Unilube MB 11", "Nissan Unilube MB 7", "Nissan Unilube MB 14", "Nissan Unilube MB 19", "Nissan Unilube MB 22", "Nissan Unilube MB 700", "Unilube MB 11", "Unilube MB 14", "Unilube MB 7", "Unilube MB 700", "Unilube MB 19", "Unilube MB 22", "Newpol LB 385", "Newpol LB 1800X", "B 01/20", "MOM 810-2", "Polyglycol L 1150", "Polyglycol L 910", "Ucon LB 285", "Ucon LB 165", "Poly-G WI 165", "Ucon LB 1145", "Ucon LB 3000", "Ucon LB 525", "B 01/10", "B 01/40", "L 7500", "Ucon Fluid AP", "Newpol LB 1715", "Ucon LB 625", "Ucon LB 1715", "Polyglycol B 01/20", "Polyoxypropylene ether with 1-butanol", "Synalox 100-150B", "Nasfroth 301", "Newpol LB 285", "Fluid AP", "Synalox PB 285", "Adeka Carpol MP 370", "Nissan Unilube MB 2", "Unilube MB 2", "LB 285", "Breox B 225", "Nissan Unilube MB 370", "BP 18100Si", "Unilube MB 370", "Pluriol A 1350P", "Nissan Unilube MB 38", "Unilube MB 38", "Polyglycol 01/40", "Synalox 100-50B", "B 01/120", "Polyglycol B 01/120", "Newpol M 30", "Tegosoft PBE", "Newpol LB 625", "Newpol LB 685", "Polyglycol B 01/40", "Leocon 1015B", "Elebase BUB 3", "Polyglycol B 01/240", "Arlamol PB 14", "Polyglykol B 01/240", "Synalox 100-120B", "Ucon Fluid LB 1715", "Butanol-propylene oxide copolymer", "Polyglykol B 01/80", "Polyglykol B 01/40", "Polyglycol B 01/80", "Blaunon BUP 1900", "LB 3000", "Antifoam PE-H", "Synalox 100-20B", "Synalox 100-85B", "Synalox 100-40B", "Acrobute MB 90", "Antifoam PE-L", "Acrobute MB 52", "Propoxylated 1-butanol", "TD 10", "T 01A", "TP 10", "TP 10 (polyoxyalkylene)", "LB 65", "A 007 (polyoxyalkylene)", "A 007"], "SMILES": "", "physical_data": {"Molecular Weight": "", "Molecular Formula": "(C3H6O)nC4H10O", "Boiling Point": "&gt;200 \u00b0C"}}