{"cas_no": "9003-49-0", "cn_name": "2-\u4e19\u70ef\u9178\u4e01\u916f\u5747\u805a\u7269", "en_name": ["Poly(butyl acrylate)", "2-Propenoic acid, butyl ester, homopolymer", "Acrylic acid butyl ester, polymers", "Butyl acrylate polymer", "n-Butyl acrylate polymer", "Plexigum D", "Poly(butyl acrylate)", "Poly(n-butyl acrylate)", "Acronal 4L", "PA 4 (polyacrylate)", "Butyl acrylate resin", "Acrylic acid butyl ester polymer", "Acronal 4F", "Rhoplex N 580", "Polysol A 612", "Rhoplex LC 67", "Plexisol D 592", "PA 4", "Plextol D 360", "Primal LC 67", "Rhoplex N 580S", "Voncoat R 3310", "Primal N 580S", "Butyl acrylate homopolymer", "Acrylic acid, butyl ester, homopolymer", "Acrybase MS 2003-1", "CH 5967", "Acronal LR 8820", "Acronal 3433", "MS 2003-1", "Diaaid AD 9002", "Primal N 580", "Acronal A 150F", "Acronal 102", "Seracryl 995", "Plextol DV 544", "n-Butyl acrylate homopolymer", "KK 1-1", "Plex 4124D", "Plextol X 4324", "AR 2600", "Arufon UP 1021", "S-Dine 7450", "Lenteks B 160", "B 160", "Paracron SN 50DR", "SN 50DR", "Triethylene tetramine-butyl acrylate-epichlorohydrin copolymer", "Nanhai 588", "Butyl acrylate-methyl 2-(dimethylstibanyl)-2-methylpropionate telomer", "Butyl acrylate-diethyl-2,5-dibromoadipate copolymer", "P 9984A-nBuANH2", "Butyl acrylate-acetonitrile copolymer", "Micryl 105", "2-Propenoic acid, butyl ester, polymer with gypsum", "Gypsum, polymer with butyl 2-propenoate", "HCA 101", "M 35", "M 35 (acrylic polymer)", "RC 300", "PSS-TBA 290k", "UP 1021", "2-Propenoic acid, butyl ester, polymer with 3-(dimethoxymethylsilyl)-1-propanethiol", "1-Propanethiol, 3-(dimethoxymethylsilyl)-, polymer with butyl 2-propenoate"], "SMILES": "C(OCCCC)(C=C)=O", "physical_data": {"Molecular Weight": "", "Molecular Formula": "(C7H12O2)x", "Melting Point": "81-83 \u00b0C", "Density": "1.026 g/cm\u00b3"}}