{"cas_no": "9003-09-2", "cn_name": "\u805a(\u4e59\u70ef\u57fa\u7532\u919a)", "en_name": ["Poly(vinyl methyl ether)", "Ethene, methoxy-, homopolymer", "Ether, methyl vinyl, polymers", "Ether, methyl vinyl, homopolymer", "Texapret WL", "Poly(methyl vinyl ether)", "Poly(vinyl methyl ether)", "Gantrez M", "Methyl vinyl ether polymer", "Vinyl methyl ether polymer", "Gantrez M 094", "Lutonal M 40", "Methyl vinyl ether homopolymer", "Gantrez M 093", "Gantrez M 154", "Gantrez M 574", "Gantrez M 555", "Gantrez M 155", "Gantrez M 556", "Lubasin S", "Vinyl methyl ether homopolymer", "Lutonal A 40", "Lutonal M 42", "PVM", "PVM 30W", "P 0384", "Poly(methoxyethene)"], "SMILES": "C(OC)=C", "physical_data": {"Molecular Weight": "", "Molecular Formula": "(C3H6O)x", "Melting Point": "112-144 \u00b0C", "Density": "1.05 g/cm\u00b3 @ Temp: 25 \u00b0C"}}