{"cas_no": "90038-01-0", "cn_name": "\u76d0\u9178\u5730\u6258\u54aa\u5b9a", "en_name": ["Detomidine hydrochloride", "1H-Imidazole, 5-[(2,3-dimethylphenyl)methyl]-, hydrochloride (1:1)", "1H-Imidazole, 4-[(2,3-dimethylphenyl)methyl]-, monohydrochloride", "Detomidine hydrochloride", "Domosedan", "Dormosedan", "MPV 253AII"], "SMILES": "C(C1=C(C)C(C)=CC=C1)C2=CN=CN2.Cl", "physical_data": {"Molecular Weight": "", "Molecular Formula": "C12H14N2.ClH", "Melting Point": "160 \u00b0C"}}