{"cas_no": "9003-95-6", "cn_name": "\u805a\u786c\u8102\u9178\u4e59\u70ef\u916f", "en_name": ["Poly(vinyl stearate)", "Octadecanoic acid, ethenyl ester, homopolymer", "Stearic acid, vinyl ester, polymers", "Poly(vinyl stearate)", "Vinyl stearate polymer", "Vinyl stearate homopolymer", "Poly(vinyl octadecanoate)"], "SMILES": "C(CCCCCCCCCCCCCCC)CC(OC=C)=O", "physical_data": {"Molecular Weight": "", "Molecular Formula": "(C20H38O2)x", "Melting Point": "8.9 \u00b0C", "Density": "0.98 g/cm\u00b3"}}