{"cas_no": "9003-11-6", "cn_name": "\u6cca\u6d1b\u6c99\u59c6188", "en_name": ["Ethylene oxide-propylene oxide copolymer", "Oxirane, 2-methyl-, polymer with oxirane", "Oxirane, methyl-, polymer with oxirane", "Glycols, polyethylene-polypropylene", "Propylene oxide, polymer with ethylene oxide", "Oxirane, polymer with methyloxirane", "Polyethylene-polypropylene glycol", "Ethylene oxide-propylene oxide copolymer", "Polypropylene glycol-ethylene oxide copolymer", "Propylene oxide-ethylene oxide copolymer", "Ethylene glycol-propylene glycol polymer", "Methyloxirane-oxirane polymer", "Poloxalene", "Polyoxyethylenated poly(oxypropylene)", "Polyoxyethylene-polyoxypropylene polymer", "Poly(oxyethylene)-poly(oxypropylene) polymer", "Poly(propylene oxide-ethylene oxide)", "Proxanol 228", "Polyoxyethylene oxypropylene", "Proxanol 158", "Wyandotte 7135", "BSP 5000", "Ethylene glycol-propylene glycol copolymer", "Nixolen SL 19", "Oxyethylene-oxypropylene polymer", "Poloxalene L 64", "Polyoxyethylene-polyoxypropylene", "Supronic B 75", "Nissan Unilube 50MB168X", "Nissan Unilube 50MB26X", "\u03b1-Hydro-\u03c9-hydroxy-poly(oxyethylene)-poly(oxypropylene)", "Magcyl", "Poloxalkol", "SKF 18667", "Methyloxirane-oxirane copolymer", "Oxirane-methyloxirane polymer", "RC 102", "TsL 431", "N 480", "Emkalyx L 101", "Berol TVM 370", "M 90/20", "PPG Diol 3000EO", "Velvetol OE 2NT1", "Polylon 13-5", "Pluracol V", "Teric PE 40", "Teric PE 60", "Teric PE 70", "TVM 370", "Propylene oxide-ethylene oxide polymer", "Polyethylene oxide-polypropylene oxide copolymer", "Polyethylene oxide-polypropylene oxide", "Supronic E 400", "Proxanol", "Teric PE 61", "Teric PE 62", "Emkalyx EP 64", "Regulaid", "Voranol P 2001", "Slovanik 630", "Slovanik 660", "Poly(oxyethylene) poly(oxypropylene) glycol", "Monolan PB", "WS 661", "Genapol PF 10", "Proksanol", "Rokopol 30P9", "Slovanik", "Oligoether L 1502-2-30", "Pluracol 686", "Genapol PF", "PF 80", "Teric PE", "Emulgen PP 150", "Emulgen PP 290", "Supronic E 800", "Oxalgon", "Separol 29", "Laprol 1502-2-70", "Supronic B 50", "Berol 370", "X 427", "X 423", "XD 8379", "Prevocell EO", "Polyoxyethylene-polyoxypropylene copolymer", "Actinol P 3035", "Epan 742", "Ucon 75H", "Ucon 75H1400", "Ucon 75H90000", "Slovanik PV 670", "Slovanik 610", "Jeffox FF 200", "Desmophen 7100", "PS 072", "Monolan 12000E80", "Nutek 7C", "PRO 21", "Unilube 50MB168X", "Unilube 50MB26X", "FT 257", "Slovanik T 310", "Pluriol SC 9361", "Poloxalene 2930", "Slovanik M", "Polyoxypropylene-polyoxyethylene copolymer", "Proxanol 224", "Genapol PF 20", "Teric PE 68", "Breox 75W270", "Balab 615", "Bloatguard", "Laprol 1601", "Slovanik T 630", "Slovanik T 320", "Oxilube 50/150", "Nissan Unilube 25DE", "Nissan Unilube 750DE2620", "Proxanol P 168", "Proxanol TsL 3", "Proxanol 168", "Oxirane-methyloxirane copolymer", "PAG", "PAG 1 (polyglycol)", "PAG 2", "PAG 1", "Separol WF 34", "Separol WF 41", "Carpol 2040", "Carpol 2050", "Proxanol 186", "Emulgen PP 250", "Industrol N 3", "Emulgen PP", "Pluriol L 64", "Nalco SPF-WTB 33", "Nixolen", "Ucon 25H", "Poloxalcol", "Nixolen VS 13", "Nixolen SL 8", "Nixolen VS 2600", "Nixolen NS 4", "Polyoxyethylenepropylene glycol ether", "Nissan Unilube DE 60", "CE", "Epan U 102", "Surflo HS 1", "Adeka Carpol MH 500", "Oxilube 50000", "Poly-G WT 9150", "Poly-G WT 90000", "75H380000", "Ethylene oxide-propylene oxide copolymer ethylene glycol ether", "Pr 168", "Jeffox PPG 2000", "Adeka Carpol PH 2000", "Voranol 5287", "Systol T 154", "PEG 600PR", "Voranol 222-056", "Synthionic 80-20", "Exocorpol", "Adekanol NP 1200", "Slovanik M 340", "50MB-26X", "XUS 15176", "Laprol 2402C", "Nissan Unilube 60DP5B", "SBU 0319", "Nissan Unilube 80DE40U", "Pepol AS 053X", "ZS 2185", "Ucon 75H450", "Oxypropylene-oxyethylene copolymer", "Excenol 2026T", "CF 0802", "WL 1590", "Zeospan 8100L", "Adeka Carpol MH 150", "Nissan Unilube 80DE40E", "Breox 50A1000", "Lupranol 2022", "Lupranol 2020", "Unilube 80DE40U", "Sipol L 61", "Sannix PE 75", "Adeka PR 3007", "PR 3007", "Genapol PFIO", "Epan U 180", "Hilube TB 1120", "Hilube D 550", "Unilube 75DE5000", "Nissan Unilube 75DE5000", "Dezemulsionat E 96", "CP 2000L", "Polyglycol EP 530", "Actcol MF 12", "Actcol MF 18", "Multranol 9182", "333E", "Berol 374", "EP 1660", "Adeka L 31", "Nissan Disfoam CC 222", "Disfoam CC 222", "Laprol 5002-2B30", "Laprol 4202-2B30", "ZSN 8100", "Breox PAG 50A1000", "CP 1000", "CP 1000 (polyoxyalkylene)", "DE 1", "DE 1 (demulsifier)", "Nixolen VS 40", "Mazu DF 204", "MAG 540-90DT", "Unilube 80DE120U", "Nissan Unilube 80DE120U", "Atlas SF 131", "Gran Up US 30", "Nissan Unilube 50TG32U", "Pluradyne FL 11", "ED 36", "Upol U", "Ethylene oxide-propylene oxide copolymer, ethylene glycol ether (2:1)", "CP 2000", "Nissan Unilube 75DE170", "NSC 63908", "Propylene oxide-oxirane copolymer", "CP 2000 (glycol)", "Oxirane-propylene oxide copolymer", "75HB1440", "L 5050", "Z 4 (demulsifier)", "Z 4", "Epan 70", "LF 40", "LF 62", "LF 40 (polyether)", "LF 62 (polyether)", "Laprol D 10", "D 10", "Emkarox VG 217W", "Emkarox VG 379W", "Emkarox VG 650W", "Emkarox VG 1051W", "ZSP 8100L", "Nonion A 10R", "Alkan 416", "Adeka PR 2008", "Desmophen L 2830", "Nissan Unilube 30DP3B", "Nissan Nonion A 10R", "Actcol ED 56", "OHV 56.1", "OHV 112", "OHV 168.2", "OHV 84.1", "MM 8750", "CP 1000L", "Alkox EP 20X", "Slovanik 1070/7", "PEP 101", "KWC-Q", "Adekanol L 62", "KRE 15", "Actcol NF 04", "Alkox EP 10X", "Blaunon EP 1461", "Multranol 9111", "Polyglycol D 21/150", "EL 551", "PF 732", "Yukol 4813", "Alkox EP 10", "Blaunon P 201", "Poly-G 55NTP", "Nixolen SL 2", "CS-DF 900", "Surfonic D 500", "Clerol PLB 847", "Newpol PE 34", "80DE40U", "Adeka PR 5007", "Adeka Polyether PR 5007", "Tdiol 1000", "Tdiol 2000", "PR 5007", "Caradol ED 52-03", "Antifoam P 21", "ND 8", "DR 4500", "Hiflex D 300", "Hiflex DR 4500", "GPE 2035", "Excenol 3040", "Plurasafe WT 9000H", "Hiflex 604", "Adekanol L 34", "Oxyethylene-oxypropylene copolymer", "Breox 50A225", "Agnique ED 0001", "Pluriol A 2600PE", "Pluriol A 4000PE", "Breox 50A50", "Alkox EP 20", "Propylene glycol-ethylene glycol copolymer", "Novanik 3010", "Actcol ED 36", "Jeffol PPG 3706", "Epoxyethane-epoxypropane copolymer", "Sinoponic P-PE 64", "Koremul LX 94", "CMC 252", "Daltocel F 3001", "Polyethylene-propylene glycol diethylene glycol ether", "Lupranol VP 9243", "PF 10", "Alcox EP 10", "IBY 2", "Acclaim 2200N", "Breox 75W55000", "PR 600", "Nalco PP 10-3340", "SDT 06E", "Propylene oxide-propylene glycol- ethylene oxide copolymer", "Rokopol D 1012E", "Rokopol PE 40", "MST 188", "Vepoloxamer", "M-RPE 1293", "Polyglycol SD 301", "DDL 400", "DEP 4000E", "Synalox 40D100", "Synalox 40D300", "Synalox 40D700", "Alkox EP 1010N", "poly(oxyethylene-oxypropylene) ether", "K-HN 8200", "EP 20", "Unilube 50DE25", "Nissan Unilube 50DE25", "Oxypropylene-oxypropylene copolymer", "Konion DR 802", "Newcol 3280", "HB 126", "C 310B", "PF 20", "Alcox EP 20", "D 21/700", "Polyglykol PR 600", "Polyglykol D 21/700", "Ethylene oxide-1,2-propylene oxide copolymer", "Takelac XLR 51", "PEG-PPG copolymer", "BPE 1500", "TPE 1000", "DP 6000E", "Pluracare L 4370", "Nissan Unilube 60MB16I", "Unilube 60MB16I", "PY 1002", "Ethylene-propylene glycol copolymer", "EPO 61", "Wanefoam RCB 6", "Polosham 188", "PEPP 6040", "PEPP 8020", "PEPB 2080", "PEPB 4555", "PPPB 3070", "PPPB 1585", "Polyoxypropylene polyoxyethylene propylene glycol ether", "KE 220", "DP 4002E", "EPOB 30E", "EPOB 50E", "EPOB 80E", "EPOB 15F", "EPOB 20F", "SC 2204", "Ethox P 104", "Ethoxylated propoxylated propylene glycol", "Woopol U", "T 320", "Ultraric PE 105", "H 4701", "Industrol DF 204", "Starlub 7", "Nissan Unilube 70DP600B", "Unilube 70DP600B", "Blaunon EP 0680", "BE 5028", "BP 2896", "DP 7530", "P 5050P", "Preminol PML 5001", "HMS 295R", "EPB 62", "PPG 5815", "PPG 7500", "Synperonic PE/P 75", "SY 1900", "K 340 (polyoxyalkylene)", "K 340", "Desmophen 10WF31", "Koremul LPE 620-1", "Pronon 204", "GP 214", "P 204", "D 230EP", "P 204 (surfactant)", "Desmophen 25IK07", "KF 28 (polyoxyalkylene)", "KF 28", "HD 4510"], "SMILES": "C1CO1.CC1CO1", "physical_data": {"Molecular Weight": "", "Molecular Formula": "(C3H6O.C2H4O)x", "Melting Point": "56 \u00b0C"}}