{"cas_no": "9003-39-8", "cn_name": "\u805a\u4e59\u70ef\u5421\u54af\u70f7\u916e", "en_name": ["Poly(vinylpyrrolidone)", "2-Pyrrolidinone, 1-ethenyl-, homopolymer", "2-Pyrrolidinone, 1-vinyl-, polymers", "Albigen A", "Kollidon", "Luviskol K 30", "Plasdone", "Plasdone 4", "Polyvidone", "Poly(1-vinyl-2-pyrrolidinone)", "Povidone", "PVP", "Subtosan", "Vinisil", "Poly(N-vinylpyrrolidinone)", "Poly(vinylpyrrolidone)", "Poly(vinylpyrrolidinone)", "Poly(N-vinylpyrrolidone)", "Peviston", "Polyclar AT", "Vinylpyrrolidinone polymer", "Peregal ST", "Luviskol K 90", "Periston", "Agent AT 717", "Poly(N-vinylbutyrolactam)", "Poly(1-vinyl-2-pyrrolidone)", "Poly(N-vinyl-2-pyrrolidinone)", "N-Vinylpyrrolidinone polymer", "N-Vinylpyrrolidone polymer", "PVP-K 90", "Vinylpyrrolidone polymer", "K 60", "K 115 (vinyl polymer)", "N-Vinylbutyrolactam polymer", "Periston N", "Poly(N-vinyl-2-pyrrolidone)", "PVP-K 3", "Antaron P 804", "Poly(N-vinyl-\u03b3-butyrolactam)", "PVP 40", "143RP", "Bolinan", "Plasmosan", "Protagent", "1-Vinyl-2-pyrrolidone polymer", "N-Vinyl-2-pyrrolidone polymer", "Kollidon 17", "Neocompensan", "Hemodez", "K 115", "MPK 90", "AT 717", "Kollidon 30", "Polyclar H", "Polyclar L", "PVP 50", "Plasdone K 29-32", "K 15 (polymer)", "Plasdone XL", "PVP-K 30", "PVP-K 60", "K 25", "Hemodesis", "Ganex P 804", "K 60 (polymer)", "Poly(1-vinylpyrrolidinone)", "Polyplasdone XL", "Kollidon 25", "PVPP", "Aldacol Q", "Kollidon 90", "Polyvidon", "Plasdone C", "Povidone K 29-32", "PVP-K 25", "K 15", "Plasdone C 15", "Kollidon K 25", "SD 13 (polymer)", "SD 13", "PVP 1230", "Kollidon K 30", "Kollidon CE 50/50", "B 7509", "K 90", "Kollidon 12PF", "PVP-K 15", "Luviskol K 17", "Luviskol K 25", "PVP-K 40", "NPK 15", "NPK 90", "Antitox Vana", "NP-K 30", "Kollidon 17PF", "Povidone K 30", "Plasdone K 15", "N-Vinylpyrrolidone homopolymer", "Sokalan HP 50", "Luviskol K 60", "Luviskol K 80", "Luviskol KPO", "Polyplasdone XL 10", "N-Vinyl-2-pyrrolidone homopolymer", "Polyvinylpyrrolidon XL", "Divergan RS", "Cevian A 88036", "Kollidon K 90", "PAK-K 15", "Polyplasdone", "PVP 25", "Povidone K 25", "PVP-K 26/28", "Luviskol K 12", "1-Vinyl-2-pyrrolidinone polymer", "LFC", "Plasdone K 30", "Gaftex AE-K 15", "K 30", "Agrimer 30", "PVP-K 120", "PVP-K 17", "K 120", "Agrimer K 30", "P 0696", "Lumiten PR 8450", "K 25 (surfactant)", "Povidone K 90", "Plasdone K 90", "Kollidon 90F", "Polyplasdone INF 10", "Sokalan HP 53", "PVP-K 80", "PVP-K 70", "K 17", "1-Vinyl-2-pyrrolidone homopolymer", "Kollidon K 17", "Kollidon K 90F", "PV 03", "PV 05", "Vinylpyrrolidone homopolymer", "PV 03 (vinyl pyrrolidone polymer)", "N-Vinyl-2-pyrrolidinone homopolymer", "Luvicross M", "PVP-K", "Plasdone XL 10", "Luviskol K", "Polyvinylpyrrolidone", "Agrimer 15", "Agrimer 90", "Poviderm SK 3", "Luviskol K 910", "PVP 10", "K 29-32", "PX-K 90L", "Sokalan HP 165", "Sokalan HP 60", "PX 90P", "PX-K 90P", "PX-K 30P", "Povidone K 17", "K 92", "K 92 (vinyl polymer)", "Divergan F", "Neohemodes", "Divergan EF", "Disintex 200", "PX 4VP90", "Kollidon K 29/32", "ACP 10", "K 30C", "Luvitec K 30", "Plasdone K 25", "Plasdone K 26-28", "Povidone K 12", "Discol K 30L", "Luvitec K 90", "Luviskol K 30SP", "K 85 (vinyl polymer)", "K 85", "Polyvidon XL", "Plasdone C 30", "TSP 9A", "40K (vinyl polymer)", "40K", "Luvitec K 60", "Rubiscole K 30", "Poly(N-vinyl-2-pyrrolidone)", "PVP-K 12", "Povidone 30", "Kollidon K 15", "Kollidon K 60", "Plasdone K 90D", "PVP 18", "Konkrepol AD 1", "K 12", "Luvitec K 17", "PVP 3000", "Luviskol K 85CQ", "PVP 99", "PVK 30", "K 30G", "Luviskol K 120", "Plasdone K 17", "Konkrepol B", "PK 771", "Pitzcol K 30L", "Epocros WS 560", "ViviPrint 530", "Polyvidone K 30", "Polidon", "Polyvidone 25", "PVP 360", "K 90W", "Lumiten PPR 8450", "K 30W", "Luvitec K 90PH", "Luvitec K 15", "MRTU 8457-79", "PVP 4000", "K 27/32", "Pitzcol K 30", "Sokolan HP 165", "Sokolan HP 53", "Sokolan HP 60", "Luviskol K 90L", "K 30PH", "K 50", "K 50 (vinyl polymer)", "Deltaspeed AF", "PVP-K 90K95", "Luviskol K 17F", "P-XL", "Kollidon 12.5", "Kollidon K 12", "Luvitec K 30PH", "Povidone K 90D", "Creejus K 90", "K 90HM", "Pitzcol K 17L", "Pitzcol K 90", "K 8", "K 8 (vinyl polymer)", "Plasdone K 29-30", "YK 001", "Plasdone C 17", "Plasdone K 12", "PVP-K 30W", "Luvitec K 40", "Creejus K 50", "Pvpon K 32", "Jarpol PVP-K 30", "Luvitec PVP-K 30", "Kollidon 92F", "PVP 40T", "Hemodez N", "PVP-K 95", "Hemodez-N", "Luvitec K 85", "PVP 40K", "Luvitec K 80", "PVP-K 85", "K 85N", "Cross P.V.P.", "PVP K 29/32", "Aqua-Quench EC/WE", "Creejus K 30", "Flexithix", "1-Vinylpyrrolidin-2-one homopolymer", "PVP-K 79", "PVP-K 45", "PVP-K 10", "HY 2", "HY 3", "PVP 15", "K 79", "K 16-18", "Agrimer ATF", "7TS13", "Aqua 65JL", "Povidone K 15", "K 85W", "PVP 17PF", "PVP 30", "N-Vinyl-2-pyrolidone homopolymer", "Kollidon 12", "PVP-K 35", "Kollidon R 90F", "Luviskol K 85L", "N-Vinylpyrrolidinone homopolymer", "Kollidon F 90", "NKY-PVP-K", "Sokalan K 17P", "Polyplasdone R-XL", "PVP-K 78", "K 40", "Sokolan K 30P", "Pitzcol K 120", "Pitzcol K 50", "PVP-K 130", "PVP-K 88-96", "Sokalan K 90P", "Arostit TL 0280", "PVP-K 64", "Sokalan K 90", "Sokalan K 85P", "Sokolan K 85P", "K 55", "Polyvinyl polypyrrolidone", "PVP 360K", "K 55 (vinyl polymer)", "K88-96", "PVPP-XL 10", "PVP S630", "Povidone 12PF", "Povidone 17PF", "K 13 (polymer)", "PVP-K 29", "K 29", "Kollidon PF 12", "n-Octyl mercaptan-N-vinylpyrrolidone copolymer", "Sokalan K 30", "Polyclar 10", "Polychral 10", "Povidone K 60", "K 96", "Sokalan K 17", "Plasdone C 12", "PVP 90", "Kollidon 90K", "PVP K 3000", "Pitzcol K 30A", "K 82-86", "PVP 504", "PVP-K 100", "PVP-K 20", "PVP-K 50", "K 23-27", "Pitzcol K 85", "PVP 60", "Plasdone PVP K 29/32", "K 13-18", "856568G", "K 16-17", "BASF-K 85", "PVP 55K", "K 130", "Sokalan K 30P", "Pitzcol K 60L", "Polyclar VT", "Agrimer 60L", "Polydon A 1", "K 29-30", "PVP 12PF", "1230B", "Povidone 90KF", "Pitzcol K 80", "PVP 24000", "PVP-K 32", "PVP 40-100G", "PVP-K 88", "K 14", "PVP-K 18", "K 18", "Luvitec K 90P", "Luvitec K 90PS", "Luvitec K 30P", "Luvitec K 90HMP", "A 16697", "P 0471", "KH 16 (vinyl polymer)", "KH 16", "PVP-K 81K98", "Polyplasone XL", "PVP-K 601", "PVP-K 602", "K 90F", "PVP-K 110", "PVP-K 150", "Vivapharm PVPP XL", "P 110607", "P 816205", "Luvitec 90HM", "Pitskol K 120", "PVP-K 23-270", "Vida-Care C-K 30P", "K 85-90"], "SMILES": "C(=C)N1C(=O)CCC1", "physical_data": {"Molecular Weight": "", "Molecular Formula": "(C6H9NO)x", "Boiling Point": "&gt;300 \u00b0C", "Melting Point": "160 \u00b0C", "Density": "1.23-1.29 g/cm\u00b3"}}