{"cas_no": "90035-08-8", "cn_name": "\u6c1f\u9f20\u916e", "en_name": ["Flocoumafen", "2H-1-Benzopyran-2-one, 4-hydroxy-3-[1,2,3,4-tetrahydro-3-[4-[[4-(trifluoromethyl)phenyl]methoxy]phenyl]-1-naphthalenyl]-", "4-Hydroxy-3-[1,2,3,4-tetrahydro-3-[4-[[4-(trifluoromethyl)phenyl]methoxy]phenyl]-1-naphthalenyl]-2H-1-benzopyran-2-one", "WL 108366", "Flocoumafen", "Storm", "Storm (rodenticide)"], "SMILES": "OC1=C(C2C=3C(CC(C2)C4=CC=C(OCC5=CC=C(C(F)(F)F)C=C5)C=C4)=CC=CC3)C(=O)OC=6C1=CC=CC6", "physical_data": {"Molecular Weight": "542.54", "Molecular Formula": "C33H25F3O4", "Melting Point": "181 \u00b0C", "Density": "1.2 g/cm\u00b3"}}