{"cas_no": "9003-17-2", "cn_name": "\u805a\u4e01\u4e8c\u70ef", "en_name": ["Polybutadiene", "1,3-Butadiene, homopolymer", "1,3-Butadiene, polymers", "Butadiene polymer", "Poly-1,3-butadiene", "Hystl", "Butarez 15", "FCR 126", "1,3-Butadiene polymer", "XRDR-A 288", "Atactic butadiene polymer", "B 11", "B 7", "Budium RK 622", "FCR 1261PD", "Hystl B 2000", "Hystl B 3000", "Nisso PR 2000", "PBC 200", "XPDR-A 288", "1,3-Butadiene oligomers", "Polybutadiene", "Nisso PB-GQ 3000", "Hystl B 1000", "Butadiene oligomer", "Alfine", "Hystl B 300", "Butadiene homopolymer", "LCB 150", "S 820", "FCR 1261 (polymer)", "Dienite X 644", "Dienite X 555", "Dienite X 556", "Dienite X 643", "Elecron 7200", "Nisso V 3043", "V 341/7781I550", "RB-S 820", "CB 10", "FCR 1261", "Huls 801", "Euderm Bottom 63B", "Euderm Bottom 33B", "New Polyoil NX 5", "Budium RKY 662", "Budium R 622", "Sconamoll 32", "PB 810", "BR 30", "Resydrol SWP 195E", "UKW Liquid", "Butarez NF", "LX 16", "Revertex LX 16", "LPM 2374", "Polyoil LCB 110", "Sconamoll MP 38", "Univest", "XW 1703A", "T 291", "Polyoil LCB 80", "LYF-G 2", "LYF-G 4", "Poly(vinylethylene)", "PO 110", "Genflo 8061", "JSR-PB 805", "B 1000", "Contaminex", "Baystal S 2004", "TP 049", "S 820 (polyolefin)", "Adcote EL 451", "NT 8500", "Ricacryl FX 9801", "BR 30 (polyolefin)", "PB 36", "PBN", "Nisseki B 700", "Nisseki B 2000", "Nisseki B 1000", "APR-K 11", "B 2000", "B 31", "B 39", "MM 100-80", "Krasvl LB 2000", "Krasvl LB 3000", "Lithene AX", "PS 004", "Martex 19230", "Seetec BR 1209H", "Krasol LB 2000", "JSR-RB 150", "RO 4403", "R 131", "SN 8000", "Polyvest 110", "Polyvest 130", "Lithene ALS", "LBH 1000", "P 110", "P 130", "Lithene P 4-25P", "Lithene P 4-150P", "Lithene AL 15MA", "Seikadaine 4300A", "Rinco 130", "Lithene Ultra AL", "Seikadaine 4300", "TW 6431", "PB 1300", "Ricon 300", "Ricon 350", "Fabrial R", "Lithene N 4-9000", "N 4-9000", "Lithene ActiV 50", "R 134 (polyolefin)", "R 134", "R 450VOI", "ActiV 50", "ActiV 1000"], "SMILES": "C(C=C)=C", "physical_data": {"Molecular Weight": "", "Molecular Formula": "(C4H6)x", "Melting Point": "155 \u00b0C", "Density": "0.90 g/cm\u00b3"}}