{"cas_no": "9003-33-2", "cn_name": "\u805a\u4e59\u70ef\u9187\u7f29\u7532\u919b", "en_name": ["Ethene, 1,1\u2032-[methylenebis(oxy)]bis-, homopolymer", "Ethene, 1,1\u2032-[methylenebis(oxy)]bis-, homopolymer", "Methane, bis(vinyloxy)-, polymers", "Poly(divinyl formal)"], "SMILES": "C(OC=C)OC=C", "physical_data": {"Molecular Weight": "", "Molecular Formula": "(C5H8O2)x", "Melting Point": "85-120 \u00b0C"}}