{"cas_no": "9004-07-3", "cn_name": "\u7cdc\u86cb\u767d\u9176", "en_name": ["Chymotrypsin", "Chymotrypsin", "Alpha-chymar ophth", "Avazyme", "Chymar", "Chymotest", "Enzeon", "Quimar", "Quimotrase", "\u03b1-Chymotrypsin", "Chymotrypsin A", "E.C. 3.4.4.6", "E.C. 3.4.21.1", "E.C. 3.4.4.5", "EC 3.4.4.5", "EC 3.4.21.1", "Alpha chymar", "\u03b1-Chymotrypsin A", "\u03b3-Chymotrypsin A", "Chymotrypsin A\u03b1", "Chymotrypsin P", "\u03b11-Chymotrypsin", "\u03b1-Chymostrypsin", "Catarase", "Zolyse", "Benzyme", "EC 3.4.4.6", "C4129-1G", "MeSH ID: D002918"], "SMILES": "", "physical_data": {"Molecular Weight": "", "Molecular Formula": "Unspecified", "Melting Point": "200 \u00b0C"}}