{"cas_no": "9004-10-8", "cn_name": "\u80f0\u5c9b\u7d20", "en_name": ["Insulin", "Insulin", "Iletin", "Endopancrine", "Insular", "Insulyl", "Iszilin", "Insulin Injection", "Decurvon", "HMR 4006", "Musulin", "Intesulin B", "Dermulin", "Humilin", "LinBit", "Afrezza", "Humilin R", "INS", "MeSH ID: D007328"], "SMILES": "", "physical_data": {"Molecular Weight": "", "Molecular Formula": "Unspecified", "Melting Point": "233 \u00b0C", "Density": "1.09 g/cm\u00b3"}}