{"cas_no": "9004-57-3", "cn_name": "\u4e59\u57fa\u7ea4\u7ef4\u7d20", "en_name": ["Ethylcellulose", "Cellulose, ethyl ether", "Ampacet E/C", "Cellulose ethylate", "Ethocel", "Nixon E/C", "Ethocel 890", "Ethylcellulose", "Ethocel E 7", "Cellulose ethyl", "Ethocel N 7", "G 200 (polysaccharide)", "SPT 50CPS", "N 7", "G 50 (polysaccharide)", "Ethocel 150", "Ethocel N 10", "ETs", "ETs (polysaccharide)", "T 100", "T 100 (polysaccharide)", "N 5", "N 10", "G 50", "Ethocel MED", "Ethocel STD", "Ethocel N 200", "Ethocel E 50", "Ethocel STD 45", "Aquacoat ECD 30", "G 200", "Ethocel STD 4", "K 5000", "Ethocel S 20", "Ethocel S 50", "Ethyl cellulose ether", "Ethocel CP 10", "Aquacoat", "Ethocel STD 45CPS", "Ethocel STD 100CPS", "Ethocel STD 7CPS", "Hercules T", "Surelease", "N 50 (polysaccharide)", "N 50", "Ethocel N 100", "O-Ethylcellulose", "Ethocel 10", "ECN 10", "Ethocel STD 100", "N 22 (cellulose derivative)", "N 22", "Ethocel E", "ET 100 (cellulose derivative)", "MFA-EM", "N 14 (cellulose derivative)", "Aquacoat ECD 30FMC", "N 14", "ET 100", "Ethocel HE 350", "Ethyl Cellulose N-200", "EHEC X-high", "N 100G", "Ethocel S 100", "N 200", "N 4", "N 200 (cellulose derivative)", "N 4 (cellulose derivative)", "T 200 (polysaccharide)", "T 200", "N 100", "N 22G", "Ethocel 100", "Aqualon NF", "Ethocel 350", "Ethocel 7CP", "TKK 021", "EC-N 100", "Aquacoat EC 30D", "Ethocel STD 7", "MED 20", "STD 20", "Ethocel STD 100FP", "Ethocel STDS 10CPS", "STD 45", "Surelease E 7-7050", "K 50 (polysaccharide)", "K 50", "K 100", "Ethocel N 22", "Aquacoat CPD 30", "CPD 30", "Ethocel P 20", "ECT 50", "T 45 (cellulose derivative)", "T 45", "N 300 (cellulose derivative)", "N 300", "Surelease E 7-7060", "Ethocel S 45", "Ethocel 20CP", "Aqualon N 50", "Aqualon N 100", "Aqualon N 300", "XLO-VP", "Hercules N 4", "Ethocel STD 10", "Aquacoat ECD", "Ethocel EXP-HE", "Ethocel STD 200", "ECN 7A", "ECN 22A", "Ethocel 45", "N 10G", "Ethocel 4", "Ethocel 7", "Surelease E 7-19070", "Aqualon K 50", "Aqualon N 22", "Aqualon T 50", "Aqualon X 22", "EC 461", "Ethocel 10FP", "E 8003 (cellulose derivative)", "E 8003", "45cP", "Aqualon EC-K 100", "Ethocel MED 70", "Ethocel 300", "Ethocel 20P", "Aqualon T 10EC", "Ethocel 45P", "STD 100", "STD 22", "Ethocel 100FP Premium", "Ethocel Standard Premium 10 FP", "STD 46", "Ethocel STD 10FP", "M 200", "Ethocel N 10STD", "M 200 (cellulose derivative)", "Ethocel NF 100", "Ethocel STD 10P", "Ethocel Gr", "N 7F", "Ethocel Standard 10 Premium", "Ethocel Premium 10", "STD 10", "Ethocel 200 Industrial", "Seriosukoto EC 30A", "EC 30A", "Ethocel STD 100Ind", "Ethocel MED 70Ind", "Ethocel STD Premium FP 100", "Ethocel 200", "MED 70", "Ethocel 300CP", "EC 100FTP", "STD 4", "Ethocel 45CP", "Celioscoat EC 30A", "Ethocel 10CPS", "EC 50", "Surelease E 7-19040", "Ethocel 20", "Ethocel Gr 10", "Ethyl Cellulose 45", "Aqualon N 200", "Ethocel 50", "Ethocel 70", "Ethocel Standard 20 Premium", "M 70", "M 70 (polysaccharide)", "Ethocel 7P", "EC 200", "EC 200 (cellulose)", "Ethocel 10P", "EK 70", "Aqualon T 200", "STD 7", "N 10PH", "Ethocel 7FP Premium", "EC 200FTD", "CE 200FTD", "Ethocel STD 4CPS", "Ethocel STD 20", "Ethocel ST 4", "Ethocel 100cP", "Aqualon N 7", "Aqualon N 15", "Aqualon EC-N 14", "Aqualon EC-N 50", "Aqualon EC-N 100", "STD 300", "STD 200", "Ethocel FP 100", "Aqualon EC-T 50", "HEC 3S", "Ethocel STD 300", "M 90", "Ethocel STD 7FP", "EC Vehicle EC 100", "Et Cellulose 46CP", "Aquacoat ECD 30D", "Ethocel Premium STD 7CPA.S", "EC 100FTD", "STD 7FP", "Aqualon EC-N 50 Pharm", "Ethocel STD 100 Premium", "Ethocel 100FP", "Aqualon EC-N 4", "ECN 4", "Hercules N 50", "Ethocel HP", "Varnish 13730", "RT-N 7", "Ethocel 7FP", "WR 1", "N 20 (cellulose)", "T 10 (cellulose)", "N 20", "T 10", "PWF-N 100"], "SMILES": "", "physical_data": {"Molecular Weight": "", "Molecular Formula": "C2H6O.xUnspecified", "Melting Point": "240-255 \u00b0C", "Density": "1.07-1.18 g/cm\u00b3"}}