{"cas_no": "9004-64-2", "cn_name": "\u7f9f\u4e19\u57fa\u7ea4\u7ef4\u7d20", "en_name": ["Hydroxypropyl cellulose", "Cellulose, 2-hydroxypropyl ether", "Hydroxypropyl cellulose", "Hydroxypropyl ether of cellulose", "Cellulose hydroxypropyl ether", "Oxypropylated cellulose", "Klucel", "Hydroxypropyl cellulose ether", "Klucel E", "Klucel G", "PM 50 (polymer)", "2-Hydroxypropyl cellulose", "PM 50", "Klucel H", "Klucel GF", "HPC-SL", "Klucel MF", "Klucel M", "Klucel JF", "Klucel J", "Klucel LF", "Klucel L", "HPC-M", "Klucel HF", "Klucel EF", "Hyprolose", "HPC-L", "LHPC 21", "HPC-H", "Nisso HPC", "HPC", "HPC-LR", "O-(Hydroxypropyl)cellulose", "Nisso HPC-SL", "Nisso HPC-L", "HPC-LG", "O-(2-Hydroxypropyl)cellulose", "Klucel HXF", "Aqualon Klucel L", "HPC-E", "HPC-E (cellulose derivative)", "LH 31", "HPC-MG", "HPC-MF", "JK 491", "HPC-LE-G", "HPC-S (cellulose derivative)", "HPC-EF-G", "L-HPC", "L-HPC-LH 31", "L-HPC-LH 21", "L-HPC-LH 41", "L-HPC LH 11", "G 4000HXL", "L-HPC-LH 22", "R 1000", "R 1000 (cellulose derivative)", "HPC-S", "HPC-SSL", "LH 11", "Klucel EXF", "Lacrisert", "LH 21", "LH 32", "LH 33", "L-HPCLH 10", "LH 20", "LH 22", "Nisso M", "Nisso H", "K 8913", "K 9113", "L-HPC 11", "LHPC 20", "E 463", "LH-B 1", "L-HPC 32W", "AeroWhip 630", "LH 20 (cellulose derivative)", "Klucel Nutra D", "Celny L", "Nisso HPC-SSL", "Celny HPC-L", "Celny HPC-SSL", "Celny HPC-M", "AeroWhip", "AeroWhip 640", "Celny H", "L-HPC-LH-B 1", "Nisso HPC-M", "Nisso HPC-H", "HPC-L 100M", "Celny M", "Celny SL", "H 0386", "H 0473", "H 0474", "H 0475", "HPC-HF", "L-HPC-NBD 022", "Klucel ELF", "Klucel M-CS", "Lodicel LDC-H", "Klucel HIND", "NBD 020", "NBD 22", "NBD 021", "Celny SSL", "Celny SSL-SFP", "HPC-SFP", "HPC-SSL-SFP", "HPC-L-FP", "Klucel LF RM 822", "NBD 022", "Klucel HF Pharm", "Klucel E 3042", "WPQP 52000H", "L-HPC NBD 020", "Klucel MXF", "HPC-EF", "HPC-LL", "ReCell HP 10", "Klucel E IND", "Performax 1426", "SJ 00135741395", "HPC-LM"], "SMILES": "", "physical_data": {"Molecular Weight": "", "Molecular Formula": "C3H8O2.xUnspecified", "Melting Point": "371.06 \u00b0C"}}