{"cas_no": "9004-39-1", "cn_name": "\u7ea4\u7ef4\u7d20\u4e59\u9178\u916f\u4e19\u9178\u916f", "en_name": ["Acetylpropionylcellulose", "Cellulose, acetate propanoate", "Cellulose, acetate propionate", "Cellulose acetate-propionate mixed ester", "Acetylpropionylcellulose", "CAP 141", "CAP 482", "CAP 242-0.5", "E 504", "CAP 504-02", "CAP 482-0.5", "307E", "CP-M", "Cabloid CP-M", "PLFS 130", "Tenite Propionate 361A2R300-10", "CAP-H 4", "CAP-MH", "CAP-S 2", "CAP 482-2.0", "307E09", "Tenite 371-12", "CAP 482-0.2", "CAP 504-0.2", "CAP 540-0.2", "CAP 482-20", "Tenite Propionate 360A40009", "KC 8NTACS", "CAP 141-20", "KA", "CAP 360", "CAP 481-20", "Tenite Propionate 360A", "E 504 (cellulose deriv.)", "Tenite 371A4861316", "Tenite 371A4000012", "CAB 504-0.2", "Tenite Propionate 307E40000-09", "Tenite Propionate 371A4000012", "CAB 482", "TP 360A40000-12", "CAP 30735-603-121A", "CAP 480-20", "Eastman CAP 482-20", "CAP", "CAP 554-0.2", "CAP 482-3", "CAP 202-29", "Tenite Propionate 380A4000015", "CAP 48205", "Tenite Propionate 360A4000012", "GC 6021", "Treva GC 6021", "CE 26627", "Cellidor CP 400-08", "Treva GC 6011", "Blueridge T 160", "Cellidor CP 300-13", "CAP 485-20"], "SMILES": "", "physical_data": {"Molecular Weight": "", "Molecular Formula": "C3H6O2.xC2H4O2.xUnspecified", "Melting Point": "230-260 \u00b0C"}}