{"cas_no": "9004-54-0", "cn_name": "\u8461\u805a\u7cd6", "en_name": ["Dextran", "Dextran", "Dextrans", "Dextran 40", "Dextran 45", "Dextran 70", "Dextran 75", "Dextran 110", "Dextran 150", "Dextranen", "Dextran PVD", "Dextran RMI", "Dextraven", "Expandex", "Gentran", "Intrader", "Macrose", "Onkotin", "Plavolex", "Rheotran", "Polyglucin", "Dextran 60", "Dextran 10", "Infucoll", "Macrodex", "Rheomacrodex", "Dextran D 10", "Dextran 15", "Plasmodex", "Hemodex", "Rheopolyglucine", "\u03b1-Dextran", "Dextran T 150", "Dextran 500", "LMD", "LMWD", "LVD", "Eudextran", "Rheodextran", "Dextran T 10", "Intradex", "Rheoisodex", "Plasmafusin", "T 70", "Dextran 1000", "Dextran T 500", "Dextran T 110", "Dextran 2000", "Rheopolyglucin", "Dextran B1355", "Dextran T 2000", "Hyskon", "Promit", "Ultradex", "LU 122", "Dextran T 70", "Dextran 3000", "Rondex", "Rondex (polysaccharide)", "Rheorondex", "Polyglusol", "Dextran T 20", "T 150", "T 500", "T 10 (carbohydrate)", "T 500 (carbohydrate)", "T 10", "T 20", "T 110", "T 250", "T 20 (carbohydrate)", "T 110 (carbohydrate)", "Dextran B 512", "Dextran PT 25", "Dextran 1.5", "T 40 (polysaccharide)", "T 40", "DEX 500", "Dextran PL 1S", "PL 1S", "Dextran 250", "Serva G", "Hyscon", "T 250 (polysaccharide)", "T 70 (carbohydrate)", "Longasteril 70", "Oncovertin N", "G 75", "Dextran 40000", "Dextran 10000", "Dextran 20000", "T 4 (polysaccharide)", "T 5 (polysaccharide)", "T 4", "T 5", "Dextran T 40", "Dextran T 100", "Gentran 40", "Detrax 40", "T 6", "R-gel", "D 9260", "D 1390", "Dextran D 9260", "Dextran D 1390", "D 5376", "Dextran 6000", "MeSH ID: D003911"], "SMILES": "", "physical_data": {"Molecular Weight": "", "Molecular Formula": "Unspecified", "Melting Point": "80 \u00b0C (decomp)"}}