{"cas_no": "9005-79-2", "cn_name": "\u7cd6\u539f", "en_name": ["Glycogen", "Glycogen", "Animal starch", "Liver starch", "Lyoglycogen", "Phytoglycogen", "Hepatin", "Liver glycogen", "Biosaccharides LS-HG", "MeSH ID: D006003"], "SMILES": "", "physical_data": {"Molecular Weight": "", "Molecular Formula": "Unspecified", "Melting Point": "148-149 \u00b0C", "Density": "1.629 g/cm\u00b3 @ Temp: -5 \u00b0C"}}