{"cas_no": "9005-67-8", "cn_name": "\u5410\u6e29 60", "en_name": ["Polyoxyethylene sorbitan monostearate", "Sorbitan, monooctadecanoate, poly(oxy-1,2-ethanediyl) derivs.", "Sorbitan, monostearate, polyoxyethylene derivs.", "Polysorbate 60", "Tween 18:0", "Tween 61", "Tween 60", "Armotan PMS 20", "Polyethylene glycol sorbitan monostearate", "Poly(oxyethylene)sorbitan monostearate", "Sorbitan polyethoxy monostearate", "Ethoxylated sorbitan monostearate", "Crillet 3", "Sorbimacrogol stearate 300", "Sorbital S 20", "Nissan Nonion ST 221", "Emsorb 6905", "Nikkol TS 10", "Nikkol TS 106", "Crill S 8", "Crill 8", "Crill 9", "Polyoxyethylene sorbitan monostearic acid ester", "Polysorbate 61", "Emasol 3130", "Glycosperse S 20", "Drewpone 60", "MS 55F", "Montanox 60", "Tandem 552", "Sorgen TW 60", "Polyoxyethylene sorbitan monooctadecanoate", "Nonion ST 221", "Rheodol TW-S 120", "Sorbitan monostearate polyoxyethylene ether", "TS 106", "T-MAZ 60K", "Rokwinol 60", "Silvan T 60", "TW-S 120", "Vykamol Sorbitol 8B", "Atlas G 1036", "Poly(oxyethylene) sorbitol monostearate", "Polyoxyethylene sorbitan stearate", "Ahco DFS 100", "Ahco DFS 149", "Rheodol TW-S 106", "T-MAZ 61", "Nissan Nonion STN 201.5", "Nissan Nonion ST 202", "Disponil SMS 120F1", "Nonio-light TWS 13", "Durfax 60K", "Polyethylene sorbitan monostearate", "Eumulgin SMS 20", "Sorbon T 60", "Crillet 31", "Sorbitan monostearate polyethylene glycol ether", "Polyethylene glycol sorbitan monostearate ether", "Emerest 2654", "Rheodol Super TW-S 120", "Emsorb 6906", "TS 10", "Polisorbac 80", "Montanox 60DF", "Newcol 65", "Ionet T 60C", "T 60C", "Polyoxyethylene sorbitan ether monostearate", "Kaopan TW-S 120", "TW-S 106", "Lumisorb PSMS 20", "Lamesorb SMS 20", "Ethsorbox S", "TS 10V", "E 435", "Rheodol TW-S 120V", "Nikkol TS 10V", "Nikkol TS 10MV", "TS 10MV", "PEG sorbitan monostearate", "T 60", "Nonion ST 220", "Nissan Nonion ST 220", "Tween 60V", "Rheodol TW-S 106V", "Pionin D 944", "Propoxylated sorbitol monostearate", "Tvin 60", "Emasol S 120V", "Wilsurf TF 60", "Nikkol TS 106V", "Pegnol T 60", "Veremul T 60E435", "Kotilen S 1", "Polysorbate 60PH", "Kolliphor PS 60", "Polyoxyethylene sorbitan monostearate", "Sorgen TW 60F", "Tego SMS 60", "Admul T 60K", "TW-S 106SV", "TS 106V", "Rheodol TW 120V", "POE sorbitan monostearate", "ST 220", "Nonion ST 60", "Nissan Nonion ST 60", "Surfaline SE 60", "T 61", "T-MAZ 85K", "Tween 60SS-SG", "Avapol 60K"], "SMILES": "", "physical_data": {"Molecular Weight": "", "Molecular Formula": "Unspecified", "Melting Point": "45-50 \u00b0C", "Density": "1.07 g/cm\u00b3"}}