{"cas_no": "9005-49-6", "cn_name": "\u809d\u7d20", "en_name": ["Heparin", "Heparin", "Sublingula", "Heparinic acid", "\u03b1-Heparin", "Heparin sulfate", "Vetren", "Vitrum AB", "Novoheparin", "CY 216", "FR 860", "CY 222", "Pabyrn", "Fraxiparin", "Sandoparin", "Parvoparin", "KB 101", "Fragmin A", "Fragmin B", "Fluxum", "Parnaparin", "Clivarin", "OP 386", "OP 622", "Reviparin", "Clivarine", "Dalteparin", "Bemiparin", "Certoparin", "Multiparin", "Heparin subcutan", "Tinzaparin", "Leparan", "Arteven", "Nadroparin", "Clevarin", "Mono-embolex", "Ardeparin", "Livaracine", "Hapacarin", "H 9399", "H 5284", "Triofiban", "Centaxarin", "Gammaparin", "Subeparin", "Nadroparine", "Deligoparin", "Octaparin", "M 118REH", "F 202", "LipoHep Forte", "AVE 5026", "Semuloparin", "M 118", "Adomiparin", "M 402", "M 402 (heparin)", "Tafoxiparin", "Necuparanib", "Heparins"], "SMILES": "", "physical_data": {"Molecular Weight": "", "Molecular Formula": "Unspecified", "Melting Point": "250 \u00b0C (decomp)"}}