{"cas_no": "9005-08-7", "cn_name": "\u805a\u4e59\u4e8c\u9187\u4e8c\u786c\u8102\u9178\u8102", "en_name": ["Polyethylene glycol distearate", "Poly(oxy-1,2-ethanediyl), \u03b1-(1-oxooctadecyl)-\u03c9-[(1-oxooctadecyl)oxy]-", "Glycols, polyethylene, distearate", "Stearic acid, diester with polyethylene glycol", "Nonex 80", "S 1009", "S 1013", "Lipal 15DS", "PEG 1540 distearate", "Polyethylene glycol distearate", "Stabogel", "PEG 1540DS", "Cithrol 10DS", "Cithrol 60DS", "Polyethylene glycol dioctadecanoate", "Polyethylene oxide distearate", "Ionet DS 400", "Cyclo PEG (400)DS", "PEG-2 Distearate", "Poly(oxyethylene) distearate", "PEG-20 Distearate", "Emerest 2642", "Lipal 400DS", "Nonisol 300", "Pegosperse 400DS", "62S", "Kessco PEG 6000DS", "EL 1821", "Dispeg 200", "Nissan Nonion DS 60HN", "Ionet DS 300", "Noigen DS 601", "Pegnol PDS 60", "Mapeg 6000DS", "Mapeg 400DS", "Mapeg 1540DS", "Emanon 3299", "Polyethylene glycol stearic acid diester", "Gelucire 55/18", "62S (lubricant)", "Cutina TS", "PEG 6000 distearate", "CRL 1095", "PEG 6000DS", "Atlas G 1821", "Genapol TS Powder", "Ionet DS 1000", "Cithrol 4DS", "Nikkol CDS 6000P", "Emerest 2712", "Eumulgin EO 33", "Lipopeg 6000DS", "Estol EO 4DS3724", "Emulmin 862", "Kessco PEG 400DS", "CDS 400", "PEG 8 distearate", "Nonion DS 60HN", "Estol 3734", "Ionet DS 4000", "Lionon DT 600S", "Ritapeg 150DS", "PEG 150 distearate", "Polyethylene glycol distearoyl ester", "Emanon 3299V", "Aculyn 60", "Emanon 3299RV", "Emanon 3299R", "Lipopeg 4DS", "PEG distearate", "Hetoxamate 6000", "Emalex 600di-S", "Emalex di-S", "CDS 6000P", "Mazol 6000DS", "Emalex 200di-S", "Emulgen 3299", "Rewopal PEG 6000DS", "Hetoxamate 6000DS", "Hetoxamate 6000DS Special", "Pionin D 2410D", "Thickener 638", "Ethox PEG 6000DS Special", "D 638", "Emalex 400di-S", "Rewopal 6000DS", "Emalex 6300di-ST", "MAPEG 600DS", "Estepearl 30", "Nikkol Estepearl 30", "PEG 400DS", "Myrj 6000", "Lasemul 2/6000", "DS 6000", "Blaunon DS 6000F", "DM 638", "Jeemate 6000DS", "Emanon 3299VB", "PEG 120", "PEG-100 distearate", "HallStar PEG 400DS", "Rewopal PEG 6000DS-A", "PEG 600DS"], "SMILES": "O(CCOC(CCCCCCCCCCCCCCCCC)=O)C(CCCCCCCCCCCCCCCCC)=O", "physical_data": {"Molecular Weight": "", "Molecular Formula": "(C2H4O)nC36H70O3", "Melting Point": "40 \u00b0C"}}