{"cas_no": "9006-42-2", "cn_name": "\u4ee3\u68ee\u8054", "en_name": ["Metiram", "Metiram", "Polyram", "NIA 9102", "Polycarbazine", "Polycarbacin", "Polyram combi", "Polycarbacine", "Polymat", "Polycarbazin", "Polyram 80WP", "Polyram 80", "Amarex", "Carbatene", "Polymarzin", "Polymarzine", "Polymarsin", "Polymarcin", "Polymarcine", "Phytox-Super", "Polyram 2000", "Polykarbacin", "Metiram-zinc", "Polyram DF", "Daisenlian"], "SMILES": "", "physical_data": {"Molecular Weight": "", "Molecular Formula": "Unspecified", "Melting Point": "~156 \u00b0C (decomp) (approx)"}}