{"cas_no": "9007-48-1", "cn_name": "\u805a\u7518\u6cb9-10 \u6cb9\u9178\u916f", "en_name": ["Plurol oleique", "1,2,3-Propanetriol, homopolymer, (9Z)-9-octadecenoate", "1,2,3-Propanetriol, homopolymer, (Z)-9-octadecenoate", "Emcol 12-14-18", "Demal 14", "Polyglyceryl oleate", "Polyglycerol oleate", "Oleic acid polyglyceride", "Santone 3-1SH", "Estax 50", "Polyglycerin oleate", "Isolan GO 33", "Emcol 14", "Unigly GO 102S", "Plurol oleique", "DO 13", "AG 7520", "Plurol Oleique CC 495", "Chirabazol VR 01", "Emulsogen OG", "Emulsogen OGP", "Drewpol 10-4O", "Polyglyceryl decaoleate", "Polyglyceryl trioleate", "Polyglycerol trioleate", "Polyglyceryl pentaoleate", "GS 28-28", "Emulsogen 607", "Unigly GO 102R", "Hydriol PGMO 4", "Pglol 202KC", "Pglol 2013KC", "Sunsoft Q 17B-C", "Sunsoft A 17E-C"], "SMILES": "C(CC=CCCCCCCCC)CCCCCC(O)=O.C(CO)(CO)O", "physical_data": {"Molecular Weight": "", "Molecular Formula": "C18H34O2.x(C3H8O3)x", "Melting Point": "&lt;0 \u00b0C"}}