{"cas_no": "90076-65-6", "cn_name": "\u53cc\u4e09\u6c1f\u7532\u70f7\u78fa\u9170\u4e9a\u80fa\u9502", "en_name": ["Lithium bis(trifluoromethanesulfonyl)imide", "Methanesulfonamide, 1,1,1-trifluoro-N-[(trifluoromethyl)sulfonyl]-, lithium salt (1:1)", "Methanesulfonamide, 1,1,1-trifluoro-N-[(trifluoromethyl)sulfonyl]-, lithium salt", "Lithium bis(trifluoromethylsulfonyl)imide", "Lithium bis(trifluoromethanesulfonyl)imide", "Lithium bis(trifluoromethylsulfonyl)amide", "Fluorad HQ 115", "Lithium triflimide", "Bis[(trifluoromethyl)sulfonyl]imide lithium salt", "HQ 115", "LiTFSI", "Lithium bistriflamide", "1,1,1-Trifluoro-N-[(trifluoromethyl)sulfonyl]methanesulfonamide lithium salt", "Lithiotrifluoromethanesulfonimide", "Lithium bis(trifluoromethane)sulfonimide", "Lithium bis(perfluoromethylsulfonyl)imide", "Lithium bis(trifluoromethane sulfone)imide", "Fluorinert HQ 115", "Fluorinert HQ 115J", "N,N-Bis[(trifluoromethyl)sulfonyl]amine lithium salt", "MEK 50R", "Lithium bis(trifluoromethanesulfonyl)amide", "Bis(trifluoromethane)sulfonimide lithium salt", "Sankonol EAc 20R", "LJ 603010", "Lithium bis(trifluromethanesulfonyl)imide", "Lithium bis(trifluoromethylsulfonyl)imidate", "Lithium bis(trifluoromethanesulfonyl)imide(1-)", "Lithium bis(trifluoromethyl)sulfonylamine", "Lithium bis(trifluoromethylsulfonyl)imidate(1-)", "EF-N 115", "Sankonol MEK 50R", "Lithium triflamide", "LiNTf2", "Lithium bis(trifluoromethane)sulfonimidate", "Eftop EF-N 115", "Methanesulfonic acid, 1,1,1-trifluoro-, 1,1\u2032-azanylidene ester, lithium salt (1:1)", "Carbon lithium dithionate floride nitride (C2Li(S2O4)F6N)"], "SMILES": "S(NS(C(F)(F)F)(=O)=O)(C(F)(F)F)(=O)=O.[Li]", "physical_data": {"Molecular Weight": "", "Molecular Formula": "C2HF6NO4S2.Li", "Melting Point": "238.00 \u00b0C", "Density": "2.27 g/cm\u00b3"}}