{"cas_no": "90101-22-7", "cn_name": "6-\u7532\u57fa\u5421\u5576-2-\u6c28\u57fa\u7532\u9178\u53d4\u4e01\u916f", "en_name": ["1,1-Dimethylethyl N-(6-methyl-2-pyridinyl)carbamate", "Carbamic acid, N-(6-methyl-2-pyridinyl)-, 1,1-dimethylethyl ester", "Carbamic acid, (6-methyl-2-pyridinyl)-, 1,1-dimethylethyl ester", "1,1-Dimethylethyl N-(6-methyl-2-pyridinyl)carbamate", "2-Methyl-6-[[tert-Butoxycarbonyl]amino]pyridine", "N-(6-Methylpyridin-2-yl)carbamic acid tert-butyl ester", "2-(tert-Butoxycarbonylamino)-6-methylpyridine", "tert-Butyl (6-methylpyridin-2-yl)carbamate"], "SMILES": "N(C(OC(C)(C)C)=O)C=1N=C(C)C=CC1", "physical_data": {"Molecular Weight": "208.26", "Molecular Formula": "C11H16N2O2", "Melting Point": "57.9-58.6 \u00b0C"}}