{"cas_no": "9010-98-4", "cn_name": "\u6c2f\u4e01\u6a61\u80f6", "en_name": ["Polychloroprene", "1,3-Butadiene, 2-chloro-, homopolymer", "1,3-Butadiene, 2-chloro-, polymers", "Polychloroprene", "Poly(2-chloro-1,3-butadiene)", "Poly(2-chlorobutadiene)", "Chloroprene polymer", "2-Chloro-1,3-butadiene polymer", "Plastifix PC", "Chlorobutadiene polymer", "1,4-cis Poly(chloropene)", "trans-1,4-Polychloroprene", "Vulkolep RS 3", "Politrans 1219", "Denkalac M 30", "FS 651", "Bostik 1410", "Chloroprene homopolymer", "Hibon 5300", "Dispercoll C 200A", "LCR-H 050", "Convulfix", "Telcopren 3.003", "Dispercoll C-VPLS 2325", "Dispercoll C-VPLS 2372H", "Telcopren 3003", "Neobond R", "Dispercoll C-XP 2694", "Neolon 2G", "Dispercoll C-VPLS 2372/1", "2-Chloro-1,3-butadiene homopolymer", "Dispercoll C 2325"], "SMILES": "C(C=C)(=C)Cl", "physical_data": {"Molecular Weight": "", "Molecular Formula": "(C4H5Cl)x", "Melting Point": "&gt;260 \u00b0C", "Density": "1.23 g/cm\u00b3"}}