{"cas_no": "90101-16-9", "cn_name": "\u5c48\u6614\u5eb7", "en_name": ["Droxicam", "2H,5H-1,3-Oxazino[5,6-c][1,2]benzothiazine-2,4(3H)-dione, 5-methyl-3-(2-pyridinyl)-, 6,6-dioxide", "Droxicam", "E 318", "Ombolan", "Droxar", "Dobenam", "E 3128"], "SMILES": "O=C1C2=C(C=3C(S(=O)(=O)N2C)=CC=CC3)OC(=O)N1C4=CC=CC=N4", "physical_data": {"Molecular Weight": "357.34", "Molecular Formula": "C16H11N3O5S", "Melting Point": "259-261 \u00b0C"}}