{"cas_no": "90101-20-5", "cn_name": "2-(BOC-\u6c28\u57fa)-4-\u7532\u57fa\u5421\u5576", "en_name": ["1,1-Dimethylethyl N-(4-methyl-2-pyridinyl)carbamate", "Carbamic acid, N-(4-methyl-2-pyridinyl)-, 1,1-dimethylethyl ester", "Carbamic acid, (4-methyl-2-pyridinyl)-, 1,1-dimethylethyl ester", "1,1-Dimethylethyl N-(4-methyl-2-pyridinyl)carbamate", "2-(tert-Butoxycarbonylamino)-4-methylpyridine", "tert-Butyl [4-methyl-2-pyridinyl]carbamate", "(4-Methylpyridin-2-yl)carbamic acid tert-butyl ester", "tert-Butyl N-(4-methylpyridin-2-yl)carbamate"], "SMILES": "N(C(OC(C)(C)C)=O)C1=CC(C)=CC=N1", "physical_data": {"Molecular Weight": "208.26", "Molecular Formula": "C11H16N2O2", "Melting Point": "103.1-105.1 \u00b0C"}}