{"cas_no": "9012-72-0", "cn_name": "\u03b2-\u8461\u805a\u7cd6", "en_name": ["D-Glucan", "D-Glucan", "Glucosan", "Polyglucan", "Glucan", "Polyglucosan", "Poly-D-glucan", "D-Glucosan", "Fit fiber 80", "Fit Fiber 80P"], "SMILES": "", "physical_data": {"Molecular Weight": "", "Molecular Formula": "Unspecified", "Melting Point": "108-109 \u00b0C"}}