{"cas_no": "90139-06-3", "cn_name": "\u897f\u62c9\u666e\u5229\u62c9", "en_name": ["Cilazaprilat", "6H-Pyridazino[1,2-a][1,2]diazepine-1-carboxylic acid, 9-[[(1S)-1-carboxy-3-phenylpropyl]amino]octahydro-10-oxo-, (1S,9S)-", "6H-Pyridazino[1,2-a][1,2]diazepine-1-carboxylic acid, 9-[(1-carboxy-3-phenylpropyl)amino]octahydro-10-oxo-, [1S-[1\u03b1,9\u03b1(R*)]]-", "(1S,9S)-9-[[(1S)-1-Carboxy-3-phenylpropyl]amino]octahydro-10-oxo-6H-pyridazino[1,2-a][1,2]diazepine-1-carboxylic acid", "Ro 31-3113", "Cilazaprilat"], "SMILES": "C(O)(=O)C1N2N(CCC1)CCCC(NC(CCC3=CC=CC=C3)C(O)=O)C2=O", "physical_data": {"Molecular Weight": "389.45", "Molecular Formula": "C20H27N3O5", "Melting Point": "242 \u00b0C"}}