{"cas_no": "90141-22-3", "cn_name": "(-)-\u68c9\u5b50\u7d20", "en_name": ["(-)-Gossypol", "[2,2\u2032-Binaphthalene]-8,8\u2032-dicarboxaldehyde, 1,1\u2032,6,6\u2032,7,7\u2032-hexahydroxy-3,3\u2032-dimethyl-5,5\u2032-bis(1-methylethyl)-, (2R)-", "[2,2\u2032-Binaphthalene]-8,8\u2032-dicarboxaldehyde, 1,1\u2032,6,6\u2032,7,7\u2032-hexahydroxy-3,3\u2032-dimethyl-5,5\u2032-bis(1-methylethyl)-, (R)-", "(2R)-1,1\u2032,6,6\u2032,7,7\u2032-Hexahydroxy-3,3\u2032-dimethyl-5,5\u2032-bis(1-methylethyl)[2,2\u2032-binaphthalene]-8,8\u2032-dicarboxaldehyde", "(-)-Gossypol", "(R)-Gossypol", "(R)-(-)-Gossypol", "AT 101", "SML 0433"], "SMILES": "C(C)(C)C=1C2=C(C(C=O)=C(O)C1O)C(O)=C(C(C)=C2)C3=C(O)C4=C(C=C3C)C(C(C)C)=C(O)C(O)=C4C=O", "physical_data": {"Molecular Weight": "518.55", "Molecular Formula": "C30H30O8", "Melting Point": "166-167 \u00b0C"}}