{"cas_no": "9014-63-5", "cn_name": "\u6728\u805a\u7cd6", "en_name": ["Xylan", "Xylan", "Xylans", "D-Xylan", "DP 42", "CMT 85", "X 8070", "MeSH ID: D014990"], "SMILES": "", "physical_data": {"Molecular Weight": "", "Molecular Formula": "Unspecified", "Melting Point": "198 \u00b0C"}}