{"cas_no": "90178-82-8", "cn_name": "2-\u785d\u57fa-5-\u6c30\u57fa\u82ef\u7532\u919b", "en_name": ["3-Formyl-4-nitrobenzonitrile", "Benzonitrile, 3-formyl-4-nitro-", "3-Formyl-4-nitrobenzonitrile", "5-Cyano-2-nitrobenzaldehyde", "3-Formyl-4-nitrobenzonitril"], "SMILES": "C(=O)C1=C(N(=O)=O)C=CC(C#N)=C1", "physical_data": {"Molecular Weight": "176.13", "Molecular Formula": "C8H4N2O3", "Melting Point": "115-116 \u00b0C"}}