{"cas_no": "90213-66-4", "cn_name": "2,4-\u4e8c\u6c2f-7H\u5421\u54af[2,3-D]\u5627\u5576", "en_name": ["2,4-Dichloro-7H-pyrrolo[2,3-d]pyrimidine", "7H-Pyrrolo[2,3-d]pyrimidine, 2,4-dichloro-", "1H-Pyrrolo[2,3-d]pyrimidine, 2,4-dichloro-", "2,4-Dichloro-7H-pyrrolo[2,3-d]pyrimidine", "2,4-Dichloro-1H-pyrrolo[2,3-d]pyrimidine"], "SMILES": "ClC1=C2C(=NC(Cl)=N1)NC=C2", "physical_data": {"Molecular Weight": "188.01", "Molecular Formula": "C6H3Cl2N3", "Melting Point": "247-250 \u00b0C"}}