{"cas_no": "90213-67-5", "cn_name": "2,4-\u4e8c\u6c2f-7-\u7532\u57fa-7H-\u5421\u54af\u5e76[2,3-D]\u5627\u5576", "en_name": ["2,4-Dichloro-7-methyl-7H-pyrrolo[2,3-d]pyrimidine", "7H-Pyrrolo[2,3-d]pyrimidine, 2,4-dichloro-7-methyl-", "2,4-Dichloro-7-methyl-7H-pyrrolo[2,3-d]pyrimidine", "2,4-Dichloro-7-methylpyrrolo[2,3-d]pyrimidine"], "SMILES": "ClC1=C2C(=NC(Cl)=N1)N(C)C=C2", "physical_data": {"Molecular Weight": "202.04", "Molecular Formula": "C7H5Cl2N3", "Melting Point": "151-152.7 \u00b0C"}}