{"cas_no": "902130-87-4", "cn_name": "6-\u7532\u6c27\u57fa-3-\u5421\u5576\u4e59\u9178", "en_name": ["6-Methoxy-3-pyridineacetic acid", "3-Pyridineacetic acid, 6-methoxy-", "6-Methoxy-3-pyridineacetic acid", "2-(6-Methoxy-3-pyridyl)acetic acid", "2-(6-Methoxypyridin-3-yl)acetic acid", "(2-Methoxy-5-pyridyl)acetic acid"], "SMILES": "C(C(O)=O)C=1C=CC(OC)=NC1", "physical_data": {"Molecular Weight": "167.16", "Molecular Formula": "C8H9NO3", "Melting Point": "110-113 \u00b0C"}}