{"cas_no": "9022-96-2", "cn_name": "\u7f29\u949b\u9178\u4e01\u916f", "en_name": ["Titanium tetrabutoxide homopolymer", "1-Butanol, titanium(4+) salt (4:1), homopolymer", "Butyl alcohol, titanium(4+) salt, polymers", "1-Butanol, titanium(4+) salt, homopolymer", "Poly(butyl titanate)", "Tyzor PB", "Poly(n-butyl titanate)", "Butyl polytitanate", "Tetrabutyl titanate polymer", "Butyl titanate homopolymer", "Poly(tetrabutyl titanate)", "Titanium tetrabutoxide polymer", "B 7", "B 10 (titanate)", "B 10", "TBT 700", "Tetrabutyl orthotitanate homopolymer", "Tilcom PBT", "Titanium tetra(n-butoxide) homopolymer", "Tyzor BTP", "BTP", "PTI 023", "B 20", "B 30", "B 30 (titanate)", "Tetra-n-butoxytitanium homopolymer", "Tetrabutoxytitanium homopolymer", "Tytan PBT", "Vertec PBT", "Titanium tetrabutoxide homopolymer", "TBT Polymer B 10", "Tetrabutyl titanate homopolymer", "Titanium(IV) butoxide polymer"], "SMILES": "C(CC)CO.[Ti]", "physical_data": {"Molecular Weight": "", "Molecular Formula": "(C4H10O.<sup>1</sup>/4Ti)x", "Boiling Point": "174 \u00b0C @ Press: 6 Torr"}}