{"cas_no": "90274-24-1", "cn_name": "\u76d0\u9178\u83b1\u514b\u591a\u5df4\u80fa", "en_name": ["Ractopamine hydrochloride", "Benzenemethanol, 4-hydroxy-\u03b1-[[[3-(4-hydroxyphenyl)-1-methylpropyl]amino]methyl]-, hydrochloride (1:1)", "Benzenemethanol, 4-hydroxy-\u03b1-[[[3-(4-hydroxyphenyl)-1-methylpropyl]amino]methyl]-, hydrochloride", "Ractopamine hydrochloride", "LY 031537", "EL 737", "Paylean", "LY O31537", "Optaflexx", "Topmax 9"], "SMILES": "C(CNC(CCC1=CC=C(O)C=C1)C)(O)C2=CC=C(O)C=C2.Cl", "physical_data": {"Molecular Weight": "", "Molecular Formula": "C18H23NO3.ClH", "Melting Point": "124-129 \u00b0C"}}