{"cas_no": "90272-84-7", "cn_name": "2-\u6c2f-7-\u7532\u57fa\u55b9\u5641\u5549", "en_name": ["2-Chloro-7-methylquinoxaline", "Quinoxaline, 2-chloro-7-methyl-", "2-Chloro-7-methylquinoxaline"], "SMILES": "ClC1=NC2=C(C=CC(C)=C2)N=C1", "physical_data": {"Molecular Weight": "178.62", "Molecular Formula": "C9H7ClN2", "Melting Point": "76 \u00b0C"}}