{"cas_no": "90280-13-0", "cn_name": "\u4e8c\u6c1f\u83ab\u8fbe\u975e\u5c3c", "en_name": ["2-[[Bis(4-fluorophenyl)methyl]sulfinyl]acetamide", "Acetamide, 2-[[bis(4-fluorophenyl)methyl]sulfinyl]-", "2-[[Bis(4-fluorophenyl)methyl]sulfinyl]acetamide", "Flmodafinil", "CRL 40,940", "Bisfluoromodafinil", "Lauflumide"], "SMILES": "C(S(CC(N)=O)=O)(C1=CC=C(F)C=C1)C2=CC=C(F)C=C2", "physical_data": {"Molecular Weight": "309.33", "Molecular Formula": "C15H13F2NO2S", "Melting Point": "78-80 \u00b0C"}}