{"cas_no": "902837-39-2", "cn_name": "4-\u6c28\u57fa-5-\u7898-3-\u6eb4\u5421\u5576", "en_name": ["3-Bromo-5-iodo-4-pyridinamine", "4-Pyridinamine, 3-bromo-5-iodo-", "3-Bromo-5-iodo-4-pyridinamine", "3-Bromo-5-iodopyridin-4-amine"], "SMILES": "NC=1C(Br)=CN=CC1I", "physical_data": {"Molecular Weight": "298.91", "Molecular Formula": "C5H4BrIN2", "Melting Point": "132-134 \u00b0C"}}