{"cas_no": "903-19-5", "cn_name": "2,5-\u4e8c\u7279\u8f9b\u57fa\u5bf9\u82ef\u4e8c\u915a", "en_name": ["2,5-Bis(1,1,3,3-tetramethylbutyl)-1,4-benzenediol", "1,4-Benzenediol, 2,5-bis(1,1,3,3-tetramethylbutyl)-", "Hydroquinone, 2,5-bis(1,1,3,3-tetramethylbutyl)-", "2,5-Bis(1,1,3,3-tetramethylbutyl)-1,4-benzenediol", "2,5-Di-tert-octylhydroquinone", "2,5-Bis(1,1,3,3-tetramethylbutyl)hydroquinone", "88HQ", "2,5-Di(1,1,3,3-tetramethylbutyl)hydroquinone", "DOHQ", "2,5-Bis(2,4,4-trimethylpentan-2-yl)benzene-1,4-diol"], "SMILES": "C(CC(C)(C)C)(C)(C)C1=C(O)C=C(C(CC(C)(C)C)(C)C)C(O)=C1", "physical_data": {"Molecular Weight": "334.54", "Molecular Formula": "C22H38O2", "Melting Point": "128.5-129.5 \u00b0C"}}