{"cas_no": "90315-82-5", "cn_name": "(R)-2-\u7f9f\u57fa-4-\u82ef\u57fa\u4e01\u9178\u4e59\u916f", "en_name": ["Ethyl (R)-2-hydroxy-4-phenylbutyrate", "Benzenebutanoic acid, \u03b1-hydroxy-, ethyl ester, (\u03b1R)-", "Benzenebutanoic acid, \u03b1-hydroxy-, ethyl ester, (R)-", "Ethyl (R)-2-hydroxy-4-phenylbutanoate", "Ethyl (R)-2-hydroxy-4-phenylbutyrate", "Ethyl (R)-4-phenyl-2-hydroxybutyrate", "Ethyl 2(R)-hydroxy-4-phenylbutyrate", "(R)-2-Hydroxy-4-phenylbutanoic acid ethyl ester", "(R)-Ethyl 4-phenyl-2-hydroxybutanoate", "Ethyl (2R)-2-hydroxy-4-phenylbutyrate", "(\u03b1R)-\u03b1-Hydroxybenzenebutanoic acid ethyl ester", "(R)-Ethyl 2-hydroxy-4-phenylbutanoic acid", "(R)-4-Phenyl-2-hydroxybutanoic acid ethyl ester", "(R)-Ethyl2-hydroxy-4-phenylbutanoate"], "SMILES": "C(CC(C(OCC)=O)O)C1=CC=CC=C1", "physical_data": {"Molecular Weight": "208.25", "Molecular Formula": "C12H16O3", "Boiling Point": "120 \u00b0C @ Press: 1.0 Torr"}}