{"cas_no": "90319-52-1", "cn_name": "(R)-4-\u82ef\u57fa-2-\u5511\u70f7\u916e", "en_name": ["(-)-4-Phenyl-2-oxazolidinone", "2-Oxazolidinone, 4-phenyl-, (4R)-", "2-Oxazolidinone, 4-phenyl-, (R)-", "(4R)-4-Phenyl-2-oxazolidinone", "(R)-4-Phenyl-2-oxazolidinone", "(R)-(-)-4-Phenyl-2-oxazolidinone", "4(R)-Phenyl-2-oxazolidinone", "(-)-4-Phenyl-2-oxazolidinone", "(R)-Phenyloxazolidinone", "(R)-4-Phenyl-1,3-oxazolidin-2-one", "(4R)-(-)-4-Phenyl-2-oxazolidinone", "(4R)-4-Phenyl-1,3-oxazolidin-2-one", "(4R)-4-Phenyl-1,3-oxazolidin-2-one", "(4R)-4-Phenyloxazolidin-2-one", "(R)-(-)-4-Phenyl-2-oxazolidinone"], "SMILES": "O=C1NC(CO1)C2=CC=CC=C2", "physical_data": {"Molecular Weight": "163.17", "Molecular Formula": "C9H9NO2", "Melting Point": "129-131 \u00b0C"}}