{"cas_no": "90357-06-5", "cn_name": "\u6bd4\u5361\u9c81\u80fa", "en_name": ["Bicalutamide", "Propanamide, N-[4-cyano-3-(trifluoromethyl)phenyl]-3-[(4-fluorophenyl)sulfonyl]-2-hydroxy-2-methyl-", "Propanamide, N-[4-cyano-3-(trifluoromethyl)phenyl]-3-[(4-fluorophenyl)sulfonyl]-2-hydroxy-2-methyl-, (\u00b1)-", "N-[4-Cyano-3-(trifluoromethyl)phenyl]-3-[(4-fluorophenyl)sulfonyl]-2-hydroxy-2-methylpropanamide", "ICI 176334", "Casodex", "(\u00b1)-4\u2032-Cyano-\u03b1,\u03b1,\u03b1-trifluoro-3-[(p-fluorophenyl)sulfonyl]-2-methyl-m-lactotoluidide", "Bicalutamide", "Cosudex", "ZD 176334", "Casode"], "SMILES": "C(F)(F)(F)C1=C(C#N)C=CC(NC(C(CS(=O)(=O)C2=CC=C(F)C=C2)(C)O)=O)=C1", "physical_data": {"Molecular Weight": "430.37", "Molecular Formula": "C18H14F4N2O4S", "Melting Point": "190-195 \u00b0C (decomp)"}}