{"cas_no": "90357-51-0", "cn_name": "N-[4-\u6c30\u57fa-3-(\u4e09\u6c1f\u7532\u57fa)\u82ef\u57fa]\u7532\u57fa\u73af\u6c27\u4e19\u70ef\u9170\u80fa", "en_name": ["N-[4-Cyano-3-(trifluoromethyl)phenyl]-2-methyl-2-oxiranecarboxamide", "2-Oxiranecarboxamide, N-[4-cyano-3-(trifluoromethyl)phenyl]-2-methyl-", "Oxiranecarboxamide, N-[4-cyano-3-(trifluoromethyl)phenyl]-2-methyl-, (\u00b1)-", "Oxiranecarboxamide, N-[4-cyano-3-(trifluoromethyl)phenyl]-2-methyl-", "N-[4-Cyano-3-(trifluoromethyl)phenyl]-2-methyl-2-oxiranecarboxamide", "2-Methyloxirane-2-carboxylic acid N-(4-cyano-3-trifluoromethylphenyl)amide"], "SMILES": "C(NC1=CC(C(F)(F)F)=C(C#N)C=C1)(=O)C2(C)CO2", "physical_data": {"Molecular Weight": "270.21", "Molecular Formula": "C12H9F3N2O2", "Melting Point": "151-152 \u00b0C"}}