{"cas_no": "90356-78-8", "cn_name": "N-[4-\u6c30\u57fa-3-(\u4e09\u6c1f\u7532\u57fa)\u82ef\u57fa]-3-(4-\u6c1f\u82ef\u5def\u57fa)-2-\u7f9f\u57fa-2-\u7532\u57fa\u4e19\u9170\u80fa", "en_name": ["N-[4-Cyano-3-(trifluoromethyl)phenyl]-3-[(4-fluorophenyl)thio]-2-hydroxy-2-methylpropanamide", "Propanamide, N-[4-cyano-3-(trifluoromethyl)phenyl]-3-[(4-fluorophenyl)thio]-2-hydroxy-2-methyl-", "Propanamide, N-[4-cyano-3-(trifluoromethyl)phenyl]-3-[(4-fluorophenyl)thio]-2-hydroxy-2-methyl-, (\u00b1)-", "N-[4-Cyano-3-(trifluoromethyl)phenyl]-3-[(4-fluorophenyl)thio]-2-hydroxy-2-methylpropanamide", "N-[4-Cyano-3-(trifluoromethyl)phenyl]-3-(4-fluorophenylsulfanyl)-2-hydroxy-2-methylpropionamide"], "SMILES": "C(F)(F)(F)C1=C(C#N)C=CC(NC(C(CSC2=CC=C(F)C=C2)(C)O)=O)=C1", "physical_data": {"Molecular Weight": "398.37", "Molecular Formula": "C18H14F4N2O2S", "Melting Point": "116-117 \u00b0C"}}