{"cas_no": "90357-53-2", "cn_name": "N-(4-\u6c30\u57fa-3-\u4e09\u6c1f\u7532\u57fa\u82ef\u57fa)\u7532\u57fa\u4e19\u70ef\u9170\u80fa", "en_name": ["N-[4-Cyano-3-(trifluoromethyl)phenyl]-2-methylacrylamide", "2-Propenamide, N-[4-cyano-3-(trifluoromethyl)phenyl]-2-methyl-", "N-[4-Cyano-3-(trifluoromethyl)phenyl]-2-methyl-2-propenamide", "N-[4-Cyano-3-(trifluoromethyl)phenyl]-2-methylacrylamide"], "SMILES": "C(F)(F)(F)C1=C(C#N)C=CC(NC(C(C)=C)=O)=C1", "physical_data": {"Molecular Weight": "254.21", "Molecular Formula": "C12H9F3N2O", "Melting Point": "137-139 \u00b0C"}}