{"cas_no": "903550-26-5", "cn_name": "1-(2-\u56db\u6c22\u5421\u5583\u57fa)-1H-\u5421\u5511-5-\u787c\u9178\u9891\u54ea\u916f", "en_name": ["1-(Tetrahydro-2H-pyran-2-yl)-1H-pyrazole-5-boronic acid pinacol ester", "1H-Pyrazole, 1-(tetrahydro-2H-pyran-2-yl)-5-(4,4,5,5-tetramethyl-1,3,2-dioxaborolan-2-yl)-", "1-(Tetrahydro-2H-pyran-2-yl)-5-(4,4,5,5-tetramethyl-1,3,2-dioxaborolan-2-yl)-1H-pyrazole", "1-(Tetrahydro-2H-pyran-2-yl)-1H-pyrazole-5-boronic acid pinacol ester", "[1-(Tetrahydropyran-2-yl)-1H-pyrazol-5-yl]boronic acid pinacol ester", "1-(Tetrahydropyran-2-yl)-5-(4,4,5,5-tetramethyl-1,3,2-dioxaborolan-2-yl)-1H-pyrazole", "1-Tetrahydropyran-2-yl-5-(4,4,5,5-tetramethyl-1,3,2-dioxaborolan-2-yl)pyrazole", "1-(Oxan-2-yl)-5-(4,4,5,5-tetramethyl-1,3,2-dioxaborolan-2-yl)pyrazole", "1-(Oxan-2-yl)-5-(tetramethyl-1,3,2-dioxaborolan-2-yl)-1H-pyrazole"], "SMILES": "CC1(C)OB(OC1(C)C)C=2N(N=CC2)C3CCCCO3", "physical_data": {"Molecular Weight": "278.15", "Molecular Formula": "C14H23BN2O3", "Melting Point": "77-78 \u00b0C"}}