{"cas_no": "903565-83-3", "cn_name": "\u6258\u683c\u5217\u51c0", "en_name": ["Tofogliflozin", "Spiro[isobenzofuran-1(3H),2\u2032-[2H]pyran]-3\u2032,4\u2032,5\u2032-triol, 6-[(4-ethylphenyl)methyl]-3\u2032,4\u2032,5\u2032,6\u2032-tetrahydro-6\u2032-(hydroxymethyl)-, (1S,3\u2032R,4\u2032S,5\u2032S,6\u2032R)-", "(1S,3\u2032R,4\u2032S,5\u2032S,6\u2032R)-6-[(4-Ethylphenyl)methyl]-3\u2032,4\u2032,5\u2032,6\u2032-tetrahydro-6\u2032-(hydroxymethyl)spiro[isobenzofuran-1(3H),2\u2032-[2H]pyran]-3\u2032,4\u2032,5\u2032-triol", "Tofogliflozin", "CSG 452"], "SMILES": "OC1C2(C=3C(CO2)=CC=C(CC4=CC=C(CC)C=C4)C3)OC(CO)C(O)C1O", "physical_data": {"Molecular Weight": "386.44", "Molecular Formula": "C22H26O6", "Melting Point": "71-92 \u00b0C"}}