{"cas_no": "9036-66-2", "cn_name": "\u963f\u62c9\u4f2f\u534a\u4e73\u805a\u7cd6", "en_name": ["L-Arabino-D-galactan", "D-Galacto-L-arabinan", "Galactoarabinan", "Arabinogalactan", "L-Arabino-D-galactan", "FiberAid", "HBN", "ResistAid", "LaraCare", "Arabinogalactan fiberaid AG99", "ActiFibe"], "SMILES": "", "physical_data": {"Molecular Weight": "", "Molecular Formula": "Unspecified", "Melting Point": "170 \u00b0C (decomp)"}}