{"cas_no": "90389-96-1", "cn_name": "N-\u7532\u57fa-3-\u6c30\u57fa\u82c4\u80fa", "en_name": ["3-[(Methylamino)methyl]benzonitrile", "Benzonitrile, 3-[(methylamino)methyl]-", "3-[(Methylamino)methyl]benzonitrile", "N-Methyl-N-(3-cyanobenzyl)amine"], "SMILES": "C(NC)C1=CC(C#N)=CC=C1", "physical_data": {"Molecular Weight": "146.19", "Molecular Formula": "C9H10N2", "Boiling Point": "144-145 \u00b0C @ Press: 15 Torr"}}