{"cas_no": "90390-27-5", "cn_name": "3,5-\u4e8c\u6c1f\u82c4\u80fa", "en_name": ["3,5-Difluorobenzylamine", "Benzenemethanamine, 3,5-difluoro-", "3,5-Difluorobenzenemethanamine", "3,5-Difluorobenzylamine", "[(3,5-Difluorophenyl)methyl]amine", "(3,5-Difluorophenyl)methanamine", "1-(3,5-Difluorophenyl)methanamine"], "SMILES": "C(N)C1=CC(F)=CC(F)=C1", "physical_data": {"Molecular Weight": "143.13", "Molecular Formula": "C7H7F2N", "Melting Point": "261-262 \u00b0C"}}