{"cas_no": "90407-21-9", "cn_name": "2-\u6eb4-3-\u785d\u57fa\u82ef\u7532\u919b", "en_name": ["2-Bromo-3-nitrobenzaldehyde", "Benzaldehyde, 2-bromo-3-nitro-", "2-Bromo-3-nitrobenzaldehyde"], "SMILES": "N(=O)(=O)C1=C(Br)C(C=O)=CC=C1", "physical_data": {"Molecular Weight": "230.02", "Molecular Formula": "C7H4BrNO3", "Melting Point": "92 \u00b0C"}}