{"cas_no": "90417-38-2", "cn_name": "NU1025", "en_name": ["8-Hydroxy-2-methyl-4(3H)-quinazolinone", "4(3H)-Quinazolinone, 8-hydroxy-2-methyl-", "4(1H)-Quinazolinone, 8-hydroxy-2-methyl-", "8-Hydroxy-2-methyl-4(3H)-quinazolinone", "Nu 1025", "NSC 696807"], "SMILES": "O=C1C=2C(NC(C)=N1)=C(O)C=CC2", "physical_data": {"Molecular Weight": "176.17", "Molecular Formula": "C9H8N2O2", "Melting Point": "248 \u00b0C"}}