{"cas_no": "90481-33-7", "cn_name": "(3S,4S)-3,4-\u4e8c\u7f9f\u57fa\u5421\u54af\u70f7-1-\u7fa7\u9178\u53d4\u4e01\u916f", "en_name": ["1,1-Dimethylethyl (3S,4S)-3,4-dihydroxy-1-pyrrolidinecarboxylate", "1-Pyrrolidinecarboxylic acid, 3,4-dihydroxy-, 1,1-dimethylethyl ester, (3S,4S)-", "1-Pyrrolidinecarboxylic acid, 3,4-dihydroxy-, 1,1-dimethylethyl ester, (3S-trans)-", "1,1-Dimethylethyl (3S,4S)-3,4-dihydroxy-1-pyrrolidinecarboxylate", "(3S,4S)-tert-Butyl 3,4-dihydroxypyrrolidine-1-carboxylate", "tert-Butyl (3S,4S)-3,4-dihydroxypyrrolidine-1-carboxylate"], "SMILES": "C(OC(C)(C)C)(=O)N1CC(O)C(O)C1", "physical_data": {"Molecular Weight": "203.24", "Molecular Formula": "C9H17NO4", "Melting Point": "163-164 \u00b0C"}}