{"cas_no": "90498-90-1", "cn_name": "\u6297\u6c27\u5242 GA-80", "en_name": ["3,9-Bis[2-[3-(3-tert-butyl-4-hydroxy-5-methylphenyl)propionyloxy]-1,1-dimethylethyl]-2,4,8,10-tetraoxaspiro[5.5]undecane", "Benzenepropanoic acid, 3-(1,1-dimethylethyl)-4-hydroxy-5-methyl-, 1,1\u2032-[2,4,8,10-tetraoxaspiro[5.5]undecane-3,9-diylbis(2,2-dimethyl-2,1-ethanediyl)] ester", "Benzenepropanoic acid, 3-(1,1-dimethylethyl)-4-hydroxy-5-methyl-, 2,4,8,10-tetraoxaspiro[5.5]undecane-3,9-diylbis(2,2-dimethyl-2,1-ethanediyl) ester", "2,4,8,10-Tetraoxaspiro[5.5]undecane, benzenepropanoic acid deriv.", "Sumilizer GA 80", "Mark AO 80", "3,9-Bis[1,1-dimethyl-2-[3-(3-tert-butyl-4-hydroxy-5-methylphenyl)propionyloxy]ethyl]-2,4,8,10-tetraoxaspiro[5.5]undecane", "Sumilizer GA", "ADK Stab AO 80", "Sumilizer AG 80", "3,9-Bis[1,1-dimethyl-2-[(3-tert-butyl-4-hydroxy-5-methylphenyl)propionyloxy]ethyl]-2,4,8,10-tetraoxaspiro[5.5]undecane", "LX 802", "AO 80", "3,9-Bis[2-[3-(3-tert-butyl-4-hydroxy-5-methylphenyl)propionyloxy]-1,1-dimethylethyl]-2,4,8,10-tetraoxaspiro[5.5]undecane", "ADK Stab LX 803A", "Antioxidant AO 80", "3,9-Bis[1,1-dimethyl-2-[\u03b2-(3-tert-butyl-4-hydroxy-5-methylphenyl)propionyloxy]ethyl]-2,4,8,10-tetraoxaspiro(5.5)undecane", "(2,4,8,10-Tetraoxaspiro[5.5]undecane-3,9-diyl)bis(2,2-dimethyl-2,1-ethanediyl) bis[3-(3-tert-butyl-4-hydroxy-5-methylphenyl)propionate]", "Antioxidant GA 80", "A 80", "GA", "GA 80", "Adekastab AO 80", "3-(1,1-Dimethylethyl)-4-hydroxy-5-methylbenzenepropanoic acid, 1,1\u2032-[2,4,8,10-tetraoxaspiro[5.5]undecane-3,9-diylbis(2,2-dimethyl-2,1-ethanediyl)] ester", "Antioxidant S 80", "AO 20 (ester)", "AO 20"], "SMILES": "C(COC(CCC1=CC(C(C)(C)C)=C(O)C(C)=C1)=O)(C)(C)C2OCC3(COC(C(COC(CCC4=CC(C(C)(C)C)=C(O)C(C)=C4)=O)(C)C)OC3)CO2", "physical_data": {"Molecular Weight": "740.96", "Molecular Formula": "C43H64O10", "Melting Point": "125 \u00b0C"}}