{"cas_no": "905-97-5", "cn_name": "3,3'-\u4e8c\u4e59\u57fa\u567b\u78b3\u83c1\u7898\u5316\u7269", "en_name": ["3,3\u2032-Diethylthiacarbocyanine iodide", "Benzothiazolium, 3-ethyl-2-[3-(3-ethyl-2(3H)-benzothiazolylidene)-1-propen-1-yl]-, iodide (1:1)", "Benzothiazolium, 3-ethyl-2-[3-(3-ethyl-2-benzothiazolinylidene)propenyl]-, iodide", "Benzothiazolium, 3-ethyl-2-[3-(3-ethyl-2(3H)-benzothiazolylidene)-1-propenyl]-, iodide", "3-Ethyl-2-[(3-ethyl-2-benzothiazolinylidene)propenyl]benzothiazolium iodide", "Benzothiazolium, 3-ethyl-2-[3-(3-ethyl-2(3H)-benzothiazolylidene)propenyl]-, iodide", "Thiacarbocyanine iodide, 3,3\u2032-diethyl-", "Thiazole Purple", "3,3\u2032-Diethyl-2,2\u2032-thiacarbocyanine iodide", "3,3\u2032-Diethylbenzothiazoliumcarbocyanine iodide", "NK 76", "Thiacarbocyanine iodide", "3,3\u2032-Diethylthiacarbocyanine iodide", "NK 180 (dye)", "NK 180", "DTCI", "LC 8760", "D 283", "S 0290", "3-Ethyl-2-[3-(3-ethyl-2,3-dihydro-1,3-benzothiazol-2-ylidene)prop-1-en-1-yl]-1,3-benzothiazol-3-ium iodide"], "SMILES": "C(C)N1C=2C(SC1=CC=CC3=[N+](CC)C=4C(S3)=CC=CC4)=CC=CC2.[I-]", "physical_data": {"Molecular Weight": "", "Molecular Formula": "C21H21N2S2.I", "Melting Point": "268 \u00b0C (decomp)"}}