{"cas_no": "905-62-4", "cn_name": "2,5-\u4e8c\u8418\u57fa-1,3,4-\u6076\u4e8c\u5511", "en_name": ["2,5-Bis(1-naphthyl)-1,3,4-oxadiazole", "1,3,4-Oxadiazole, 2,5-di-1-naphthalenyl-", "1,3,4-Oxadiazole, 2,5-di-1-naphthyl-", "2,5-Di-1-naphthalenyl-1,3,4-oxadiazole", "2,5-Bis(\u03b1-naphthyl)oxadiazole", "2,5-Di-1-naphthyl-1,3,4-oxadiazole", "ANND", "\u03b1-NND", "2,5-Bis(1-naphthyl)-1,3,4-oxadiazole", "NSC 90480", "BND"], "SMILES": "C=1(C2=C(C=CC1)C=CC=C2)C=3OC(=NN3)C=4C5=C(C=CC4)C=CC=C5", "physical_data": {"Molecular Weight": "322.36", "Molecular Formula": "C22H14N2O", "Melting Point": "178.0-178.5 \u00b0C"}}