{"cas_no": "905-96-4", "cn_name": "3-\u4e59\u57fa-2-[3-(3-\u4e59\u57fa-3H-\u82ef\u5e76\u6076\u5511-2-\u4e9a\u57fa)\u4e19-1-\u70ef\u57fa]\u82ef\u5e76\u6076\u5511\u7898\u5316\u7269", "en_name": ["3,3\u2032-Diethyloxacarbocyanine iodide", "Benzoxazolium, 3-ethyl-2-[3-(3-ethyl-2(3H)-benzoxazolylidene)-1-propen-1-yl]-, iodide (1:1)", "Benzoxazolium, 3-ethyl-2-[3-(3-ethyl-2-benzoxazolinylidene)propenyl]-, iodide", "Benzoxazolium, 3-ethyl-2-[3-(3-ethyl-2(3H)-benzoxazolylidene)-1-propenyl]-, iodide", "3-Ethyl-2-[3-(3-ethyl-2-benzoxazolinylidene)propenyl]benzoxazolium iodide", "3,3\u2032-Diethyloxacarbocyanine iodide", "3,3\u2032-Diethyl-2,2\u2032-oxacarbocyanine iodide", "G 1745", "3-Ethyl-2-[3-ethyl-2(3H)-benzoxazolylidene)-1-propenyl]benzoxazolium iodide)", "NK 85", "DOC (dye)", "DOC", "DOCI", "DiOC 2(3)", "DiOC 2"], "SMILES": "C(C)N1C=2C(OC1=CC=CC3=[N+](CC)C=4C(O3)=CC=CC4)=CC=CC2.[I-]", "physical_data": {"Molecular Weight": "", "Molecular Formula": "C21H21N2O2.I", "Melting Point": "210 \u00b0C (decomp)"}}