{"cas_no": "90536-66-6", "cn_name": "4-\u7532\u78fa\u9170\u57fa\u82ef\u4e59\u9178", "en_name": ["4-(Methylsulfonyl)phenylacetic acid", "Benzeneacetic acid, 4-(methylsulfonyl)-", "Acetic acid, [p-(methylsulfonyl)phenyl]-", "4-(Methylsulfonyl)benzeneacetic acid", "4-Mesylphenylacetic acid", "4-(Methylsulfonyl)phenylacetic acid", "(4-Methanesulfonylphenyl)acetic acid", "2-[4-(Methylsulfonyl)phenyl]acetic acid", "2-(4-(Methanesulfonyl)phenyl)acetic acid"], "SMILES": "S(C)(=O)(=O)C1=CC=C(CC(O)=O)C=C1", "physical_data": {"Molecular Weight": "214.24", "Molecular Formula": "C9H10O4S", "Melting Point": "137 \u00b0C"}}