{"cas_no": "905579-51-3", "cn_name": "\u6c28\u57fa\u78fa\u9178 [(1S,2S,4R)-4-[4-[[(1S)-2,3-\u4e8c\u6c22-1H-\u831a-1-\u57fa]\u6c28\u57fa]-7H-\u5421\u54af\u5e76[2,3-D]\u5627\u5576-7-\u57fa]-2-\u7f9f\u57fa\u73af\u620a\u57fa]\u7532\u57fa\u916f", "en_name": ["Pevonedistat", "Sulfamic acid, [(1S,2S,4R)-4-[4-[[(1S)-2,3-dihydro-1H-inden-1-yl]amino]-7H-pyrrolo[2,3-d]pyrimidin-7-yl]-2-hydroxycyclopentyl]methyl ester", "MLN 4924", "Pevonedistat"], "SMILES": "N(C1=C2C(N(C=C2)C3CC(COS(N)(=O)=O)C(O)C3)=NC=N1)C4C=5C(CC4)=CC=CC5", "physical_data": {"Molecular Weight": "443.52", "Molecular Formula": "C21H25N5O4S", "Melting Point": "164-166 \u00b0C"}}