{"cas_no": "90566-53-3", "cn_name": "\u6c1f\u66ff\u5361\u677e", "en_name": ["Fluticasone", "Androsta-1,4-diene-17-carbothioic acid, 6,9-difluoro-11,17-dihydroxy-16-methyl-3-oxo-, S-(fluoromethyl) ester, (6\u03b1,11\u03b2,16\u03b1,17\u03b1)-", "Fluticasone", "VR 506"], "SMILES": "CC12C(C3C(F)(C4(C)C(C(F)C3)=CC(=O)C=C4)C(O)C1)CC(C)C2(C(SCF)=O)O", "physical_data": {"Molecular Weight": "444.51", "Molecular Formula": "C22H27F3O4S", "Melting Point": "237-239 \u00b0C"}}