{"cas_no": "90580-64-6", "cn_name": "4-\u787c\u57fa-DL-\u82ef\u4e19\u6c28\u9178", "en_name": ["p-Boronophenylalanine", "Phenylalanine, 4-borono-", "Alanine, 3-(p-boronophenyl)-", "4-Boronophenylalanine", "p-Boronophenylalanine", "DL-p-Boronophenylalanine", "(\u00b1)-p-Boronophenylalanine", "2-Amino-3-[4-(dihydroxyboranyl)phenyl]propanoic acid"], "SMILES": "C(C(C(O)=O)N)C1=CC=C(B(O)O)C=C1", "physical_data": {"Molecular Weight": "209.01", "Molecular Formula": "C9H12BNO4", "Melting Point": "285-290 \u00b0C (decomp)"}}