{"cas_no": "90582-44-8", "cn_name": "\u9ad8\u7cb1\u9187", "en_name": ["(3\u03b2,21\u03b2)-13,17-Dimethyl-A\u2032-neo-26,28-dinorgammacer-9(11)-en-3-ol", "A\u2032-Neo-26,28-dinorgammacer-9(11)-en-3-ol, 13,17-dimethyl-, (3\u03b2,21\u03b2)-", "Isoarborinol", "D:C-Friedo-B\u2032:A\u2032-neo-8\u03b2,13\u03b2,14\u03b1,17\u03b2,18\u03b1,21\u03b1H-gammacer-9(11)-en-3\u03b2-ol", "D:C-Friedo-B\u2032:A\u2032-neogammacer-9(11)-en-3-ol, (3\u03b2,8\u03b2,13\u03b2,14\u03b1,17\u03b2,18\u03b1,21\u03b2)-", "Arborinol B", "(3\u03b2,21\u03b2)-13,17-Dimethyl-A\u2032-neo-26,28-dinorgammacer-9(11)-en-3-ol", "3\u03b2-Arborinol", "(+)-Isoarborinol", "Sorghumol"], "SMILES": "CC12C(C)(C3C(=CC1)C4(C)C(CC3)C(C)(C)C(O)CC4)CCC5(C)C2CCC5C(C)C", "physical_data": {"Molecular Weight": "426.72", "Molecular Formula": "C30H50O", "Melting Point": "298-299 \u00b0C"}}