{"cas_no": "906-65-0", "cn_name": "2-(\u4e09\u82ef\u57fa\u4e9a\u78f7\u57fa)\u4e01\u4e8c\u9178\u9150", "en_name": ["(Triphenylphosphoranylidene)succinic anhydride", "2,5-Furandione, dihydro-3-(triphenylphosphoranylidene)-", "Succinic anhydride, (triphenylphosphoranylidene)-", "Dihydro-3-(triphenylphosphoranylidene)-2,5-furandione", "(2,5-Dioxotetrahydrofuranylidene)triphenylphosphorane", "(Triphenylphosphoranylidene)succinic anhydride", "3-(Triphenylphosphoranylidene)dihydro-2,5-furandione", "NSC 238927", "2-(Triphenylphosphoranylidene)succinic anhydride"], "SMILES": "P(=C1C(=O)OC(=O)C1)(C2=CC=CC=C2)(C3=CC=CC=C3)C4=CC=CC=C4", "physical_data": {"Molecular Weight": "360.34", "Molecular Formula": "C22H17O3P", "Melting Point": "162.5-163.5 \u00b0C"}}