{"cas_no": "906-33-2", "cn_name": "\u65b0\u7eff\u539f\u9178", "en_name": ["Neochlorogenic acid", "Cyclohexanecarboxylic acid, 3-[[(2E)-3-(3,4-dihydroxyphenyl)-1-oxo-2-propen-1-yl]oxy]-1,4,5-trihydroxy-, (1R,3R,4S,5R)-", "Neochlorogenic acid", "Cyclohexanecarboxylic acid, 3-[[3-(3,4-dihydroxyphenyl)-1-oxo-2-propenyl]oxy]-1,4,5-trihydroxy-, [1R-[1\u03b1,3\u03b1(E),4\u03b1,5\u03b2]]-", "Cyclohexanecarboxylic acid, 3-[[(2E)-3-(3,4-dihydroxyphenyl)-1-oxo-2-propenyl]oxy]-1,4,5-trihydroxy-, (1R,3R,4S,5R)-", "(1R,3R,4S,5R)-3-[[(2E)-3-(3,4-Dihydroxyphenyl)-1-oxo-2-propen-1-yl]oxy]-1,4,5-trihydroxycyclohexanecarboxylic acid", "5-O-Caffeoylquinic acid", "5-(E)-Caffeoylquinic acid", "5-Caffeoylquinic acid", "(E)-Neochlorogenic acid", "trans-5-O-Caffeoylquinic acid", "5-O-Caffeolyquinic acid", "3-O-(E)-Caffeoylquinic acid", "3-trans-O-Caffeoylquinic acid"], "SMILES": "O(C(C=CC1=CC(O)=C(O)C=C1)=O)C2CC(C(O)=O)(O)CC(O)C2O", "physical_data": {"Molecular Weight": "354.31", "Molecular Formula": "C16H18O9", "Melting Point": "204-206 \u00b0C (decomp)"}}