{"cas_no": "90657-55-9", "cn_name": "\u53cd\u5f0f-4-\u73af\u5df1\u57fa-L-\u812f\u6c28\u9178\u76d0\u9178\u76d0", "en_name": ["L-Proline, 4-cyclohexyl-, hydrochloride (1:1), (4S)-", "L-Proline, 4-cyclohexyl-, hydrochloride (1:1), (4S)-", "L-Proline, 4-cyclohexyl-, hydrochloride, trans-", "L-Proline, 4-cyclohexyl-, hydrochloride, (4S)-", "trans-4-Cyclohexyl-L-proline hydrochloride"], "SMILES": "C(O)(=O)C1CC(CN1)C2CCCCC2.Cl", "physical_data": {"Molecular Weight": "", "Molecular Formula": "C11H19NO2.ClH", "Melting Point": "172-174 \u00b0C"}}