{"cas_no": "906674-55-3", "cn_name": "2-\u567b\u5429\u4e09\u6c1f\u787c\u9178\u94be", "en_name": ["Borate(1-), trifluoro-2-thienyl-, potassium (1:1), (T-4)-", "Borate(1-), trifluoro-2-thienyl-, potassium (1:1), (T-4)-", "Borate(1-), trifluoro-2-thienyl-, potassium, (T-4)-", "Potassium (2-thienyl)trifluoroborate", "Potassium 2-thienyltrifluoroborate", "Potassium trifluoro(2-thienyl)borate"], "SMILES": "[B+3]([F-])([F-])([F-])[C-]1=CC=CS1.[K+]", "physical_data": {"Molecular Weight": "", "Molecular Formula": "C4H3BF3S.K", "Melting Point": "253 \u00b0C"}}