{"cas_no": "90717-03-6", "cn_name": "\u6c2f\u7532\u55b9\u5549\u9178", "en_name": ["Quinmerac", "8-Quinolinecarboxylic acid, 7-chloro-3-methyl-", "7-Chloro-3-methyl-8-quinolinecarboxylic acid", "BAS 518H", "BAS 518", "Quinmerac", "BAS 51802H"], "SMILES": "C(O)(=O)C=1C2=C(C=CC1Cl)C=C(C)C=N2", "physical_data": {"Molecular Weight": "221.64", "Molecular Formula": "C11H8ClNO2", "Melting Point": "244 \u00b0C"}}