{"cas_no": "90719-30-5", "cn_name": "(4S)-N-\u5df4\u8c46\u9170\u57fa-4-\u5f02\u4e19\u57fa-2-\u6076\u5511\u70f7\u916e", "en_name": ["Locostatin", "2-Oxazolidinone, 3-[(2E)-1-oxo-2-buten-1-yl]-4-(phenylmethyl)-, (4S)-", "2-Oxazolidinone, 3-(1-oxo-2-butenyl)-4-(phenylmethyl)-, [S-(E)]-", "2-Oxazolidinone, 3-[(2E)-1-oxo-2-butenyl]-4-(phenylmethyl)-, (4S)-", "(4S)-3-[(2E)-1-Oxo-2-buten-1-yl]-4-(phenylmethyl)-2-oxazolidinone", "UIC 1005", "(4S)-4-Benzyl-3-((E)-2-butenoyl)oxazolidin-2-one", "Locostatin"], "SMILES": "C(C1N(C(C=CC)=O)C(=O)OC1)C2=CC=CC=C2", "physical_data": {"Molecular Weight": "245.27", "Molecular Formula": "C14H15NO3", "Melting Point": "87-90 \u00b0C"}}