{"cas_no": "90719-32-7", "cn_name": "(S)-4-\u82c4\u57fa-2-\u5511\u70f7\u916e", "en_name": ["(-)-4-Benzyl-2-oxazolidinone", "2-Oxazolidinone, 4-(phenylmethyl)-, (4S)-", "2-Oxazolidinone, 4-(phenylmethyl)-, (S)-", "(4S)-4-(Phenylmethyl)-2-oxazolidinone", "(S)-4-Benzyloxazolidin-2-one", "(S)-4-Phenylmethyl-2-oxazolidinone", "(S)-(-)-4-Benzyl-2-oxazolidinone", "4S-(Phenylmethyl)oxazolidin-2-one", "(4S)-Benzyloxazolidin-2-one", "4S-Benzyloxazolidin-2-one", "4-(S)-Benzyl-2-oxazolidinone", "(S)-4-Benzyloxy-2-azolidinone", "(-)-4-Benzyl-2-oxazolidinone", "(4S)-4-Benzyl-1,3-oxazolidin-2-one", "(4S)-4-(Phenylmethyl)-1,3-oxazolidin-2-one", "(4S)-4-Benzyloxazolidin-2-one", "(S)-(-)-4-Benzyl-1,3-oxazolidin-2-one", "(4S)-(-)-4-(Phenylmethyl)-1,3-oxazolidin-2-one", "(S)-4-Benzyl-2-oxazolidone"], "SMILES": "C(C1COC(=O)N1)C2=CC=CC=C2", "physical_data": {"Molecular Weight": "177.20", "Molecular Formula": "C10H11NO2", "Melting Point": "89-90 \u00b0C"}}