{"cas_no": "90725-68-1", "cn_name": "2-\u6eb4\u7532\u57fa-5-\u785d\u57fa\u82ef\u7532\u9178\u7532\u916f", "en_name": ["Benzoic acid, 2-(bromomethyl)-5-nitro-, methyl ester", "Benzoic acid, 2-(bromomethyl)-5-nitro-, methyl ester", "o-Toluic acid, \u03b1-bromo-5-nitro-, methyl ester", "Methyl 2-(bromomethyl)-5-nitrobenzoate", "EC2-053"], "SMILES": "C(OC)(=O)C1=C(CBr)C=CC(N(=O)=O)=C1", "physical_data": {"Molecular Weight": "274.07", "Molecular Formula": "C9H8BrNO4", "Melting Point": "76-77 \u00b0C"}}