{"cas_no": "90729-42-3", "cn_name": "\u5361\u745e\u65af\u6c40-D5", "en_name": ["Carebastine", "Benzeneacetic acid, 4-[4-[4-(diphenylmethoxy)-1-piperidinyl]-1-oxobutyl]-\u03b1,\u03b1-dimethyl-", "4-[4-[4-(Diphenylmethoxy)-1-piperidinyl]-1-oxobutyl]-\u03b1,\u03b1-dimethylbenzeneacetic acid", "Carebastine", "2-(4-(4-(4-(Benzhydryloxy)piperidin-1-yl)-butanoyl)phenyl)-2-methylpropanoic acid"], "SMILES": "C(OC1CCN(CCCC(=O)C2=CC=C(C(C(O)=O)(C)C)C=C2)CC1)(C3=CC=CC=C3)C4=CC=CC=C4", "physical_data": {"Molecular Weight": "499.64", "Molecular Formula": "C32H37NO4", "Melting Point": "173-175 \u00b0C"}}