{"cas_no": "907204-31-3", "cn_name": "\u6c1f\u82ef\u5421\u83cc\u80fa", "en_name": ["Fluxapyroxad", "1H-Pyrazole-4-carboxamide, 3-(difluoromethyl)-1-methyl-N-(3\u2032,4\u2032,5\u2032-trifluoro[1,1\u2032-biphenyl]-2-yl)-", "3-(Difluoromethyl)-1-methyl-N-(3\u2032,4\u2032,5\u2032-trifluoro[1,1\u2032-biphenyl]-2-yl)-1H-pyrazole-4-carboxamide", "3-(Difluoromethyl)-1-methyl-N-(3\u2032,4\u2032,5\u2032-trifluorobiphenyl-2-yl)-1H-pyrazole-4-carboxamide", "Fluxapyroxad", "Xemium", "Sercadis", "Acceleron DX 612", "Systiva XS", "Xzemplar", "Imbrex", "Fluoxapyr"], "SMILES": "N(C(=O)C=1C(C(F)F)=NN(C)C1)C2=C(C3=CC(F)=C(F)C(F)=C3)C=CC=C2", "physical_data": {"Molecular Weight": "381.30", "Molecular Formula": "C18H12F5N3O", "Melting Point": "137-140 \u00b0C"}}