{"cas_no": "90764-90-2", "cn_name": "3-\u7532\u57fa-1H-\u5432\u5511-5-\u80fa", "en_name": ["3-Methyl-1H-indazol-5-amine", "1H-Indazol-5-amine, 3-methyl-", "1H-Indazole, 5-amino-3-methyl-", "3-Methyl-1H-indazol-5-amine", "5-Amino-3-methylindazole", "(3-Methyl-1H-indazol-5-yl)amine", "5-Amino-3-methyl-1H-indazole", "3-Methyl-2H-indazol-5-amine"], "SMILES": "CC=1C=2C(=CC=C(N)C2)NN1", "physical_data": {"Molecular Weight": "147.18", "Molecular Formula": "C8H9N3", "Melting Point": "232-233 \u00b0C"}}