{"cas_no": "90774-69-9", "cn_name": "4-(\u4e09\u6c1f\u7532\u57fa)\u82ef\u80fa\u76d0\u9178\u76d0", "en_name": ["Benzenamine, 4-(trifluoromethyl)-, hydrochloride (1:1)", "Benzenamine, 4-(trifluoromethyl)-, hydrochloride (1:1)", "Benzenamine, 4-(trifluoromethyl)-, hydrochloride", "4-(Trifluoromethyl)aniline hydrochloride", "p-(Trifluoromethyl)anilinium chloride", "p-(Trifluoromethyl)aniline hydrochloride"], "SMILES": "C(F)(F)(F)C1=CC=C(N)C=C1.Cl", "physical_data": {"Molecular Weight": "", "Molecular Formula": "C7H6F3N.ClH", "Melting Point": "199.7-201.5 \u00b0C"}}