{"cas_no": "90776-58-2", "cn_name": "(3S,4S)-3-((R)-1-(\u53d4\u4e01\u57fa\u4e8c\u7532\u57fa\u7845\u6c27\u57fa)\u4e59\u57fa)-4((R)-1-\u7532\u9170\u4e59\u57fa)-2-\u6c2e\u6742\u73af\u4e01\u916e", "en_name": ["(R)-2-[(3S,4S)-3-[(R)-1-(tert-Butyldimethylsilyloxy)ethyl]-2-oxoazetidin-4-yl]propionic acid", "2-Azetidineacetic acid, 3-[(1R)-1-[[(1,1-dimethylethyl)dimethylsilyl]oxy]ethyl]-\u03b1-methyl-4-oxo-, (\u03b1R,2S,3S)-", "2-Azetidineacetic acid, 3-[1-[[(1,1-dimethylethyl)dimethylsilyl]oxy]ethyl]-\u03b1-methyl-4-oxo-, [2S-[2\u03b1(S*),3\u03b2(S*)]]-", "(\u03b1R,2S,3S)-3-[(1R)-1-[[(1,1-Dimethylethyl)dimethylsilyl]oxy]ethyl]-\u03b1-methyl-4-oxo-2-azetidineacetic acid", "(R)-2-[(3S,4S)-3-[(R)-1-(tert-Butyldimethylsilyloxy)ethyl]-2-oxoazetidin-4-yl]propionic acid", "(3S,4S)-3-[(1R)-1-[(tert-Butyldimethylsilyl)oxy]ethyl]-4-((1R)-1-carboxyethyl)azetidin-2-one"], "SMILES": "C(C(O)=O)(C)C1C(C(O[Si](C(C)(C)C)(C)C)C)C(=O)N1", "physical_data": {"Molecular Weight": "301.45", "Molecular Formula": "C14H27NO4Si", "Melting Point": "146-147 \u00b0C"}}