{"cas_no": "908-54-3", "cn_name": "4,4\u2019-\u4e8c\u8112\u57fa\u91cd\u6c2e\u6c28\u57fa\u82ef\u4e8c\u4e59\u5c3f\u9178", "en_name": ["Berenil", "Glycine, N-acetyl-, compd. with 4,4\u2032-(1-triazene-1,3-diyl)bis[benzenecarboximidamide] (2:1)", "Glycine, N-acetyl-, compd. with 4,4\u2032-(diazoamino)dibenzamidine (2:1)", "Glycine, N-acetyl-, compd. with 4,4\u2032-(azoamino)dibenzamidine", "Benzamidine, 4,4\u2032-diazoaminodi-, diaceturate", "Benzamidine, 4,4\u2032-(diazoamino)di-, compd. with N-acetylglycine (1:2)", "Benzenecarboximidamide, 4,4\u2032-(1-triazene-1,3-diyl)bis-, compd. with N-acetylglycine (1:2)", "Azidin", "Azidine", "Di-(4-amidinophenyl)-triazine-(N-1,3)-diaceturate", "Berenil", "Diminazene diaceturate", "Diminazene aceturate", "Diminazine aceturate", "4,4\u2032-Diamidinodiazoaminobenzene diaceturate", "4,4\u2032-(Diazoamino)dibenzamidine diaceturate", "1,3-Bis(p-amidinophenyl)triazene bis(N-acetylglycinate)", "1,3-Bis[4-guanylphenyl]triazene diaceturate", "p,p\u2032-Diguanyldiazoaminobenzene diaceturate", "Ganasag", "Ganaseg", "Beronal", "Diaminazene aceturate", "Veriben", "Diminazine diaceturate", "Diminasan", "Fatrybanil", "Tricip Plus", "Neozidin-M"], "SMILES": "C(=N)(N)C1=CC=C(N=NNC2=CC=C(C(=N)N)C=C2)C=C1.C(NC(C)=O)C(O)=O", "physical_data": {"Molecular Weight": "", "Molecular Formula": "C14H15N7.2C4H7NO3", "Melting Point": "202 \u00b0C"}}