{"cas_no": "908600-75-9", "cn_name": "7-\u6c1f-1H-\u5432\u54da-6-\u7fa7\u9178", "en_name": ["7-Fluoro-1H-indole-6-carboxylic acid", "1H-Indole-6-carboxylic acid, 7-fluoro-", "7-Fluoro-1H-indole-6-carboxylic acid"], "SMILES": "FC1=C2C(=CC=C1C(O)=O)C=CN2", "physical_data": {"Molecular Weight": "179.15", "Molecular Formula": "C9H6FNO2", "Melting Point": "160-162 \u00b0C"}}