{"cas_no": "909-84-2", "cn_name": "\u4e03\u53f6\u4ead\u4e8c\u82c4\u919a", "en_name": ["6,7-Bis(phenylmethoxy)-2H-1-benzopyran-2-one", "2H-1-Benzopyran-2-one, 6,7-bis(phenylmethoxy)-", "Coumarin, 6,7-bis(benzyloxy)-", "6,7-Bis(phenylmethoxy)-2H-1-benzopyran-2-one", "6,7-Dibenzylesculetin", "6,7-Bis(benzyloxy)coumarin"], "SMILES": "O(CC1=CC=CC=C1)C=2C=C3C(=CC2OCC4=CC=CC=C4)C=CC(=O)O3", "physical_data": {"Molecular Weight": "358.39", "Molecular Formula": "C23H18O4", "Melting Point": "161.5 \u00b0C"}}