{"cas_no": "90902-84-4", "cn_name": "3-\u80fa\u57fa-2,5-\u4e8c\u6eb4\u5421\u5576", "en_name": ["2,5-Dibromo-3-pyridinamine", "3-Pyridinamine, 2,5-dibromo-", "2,5-Dibromo-3-pyridinamine", "2,5-Dibromo-3-aminopyridine", "2,5-Dibromopyridin-3-ylamine", "2,5-Dibromopyridin-3-amine"], "SMILES": "NC1=C(Br)N=CC(Br)=C1", "physical_data": {"Molecular Weight": "251.91", "Molecular Formula": "C5H4Br2N2", "Melting Point": "153 \u00b0C"}}