{"cas_no": "90914-81-1", "cn_name": "4-\u6eb4-3-\u7532\u57fa\u4e59\u9170\u82ef\u80fa", "en_name": ["N-(4-Bromo-3-methylphenyl)acetamide", "Acetamide, N-(4-bromo-3-methylphenyl)-", "m-Acetotoluidide, 4\u2032-bromo-", "N-(4-Bromo-3-methylphenyl)acetamide", "4\u2032-Bromo-3\u2032-methylacetanilide", "3-Methyl-4-bromo-N-acetylaniline"], "SMILES": "N(C(C)=O)C1=CC(C)=C(Br)C=C1", "physical_data": {"Molecular Weight": "228.09", "Molecular Formula": "C9H10BrNO", "Melting Point": "103-104 \u00b0C"}}