{"cas_no": "90982-32-4", "cn_name": "\u6c2f\u5627\u9ec4\u9686", "en_name": ["Chlorimuron-ethyl", "Benzoic acid, 2-[[[[(4-chloro-6-methoxy-2-pyrimidinyl)amino]carbonyl]amino]sulfonyl]-, ethyl ester", "DPX-F 6025", "Classic", "Chlorimuron-ethyl", "Chlorimuron ethyl ester", "HIT 25VP", "Classic 25DF", "Ethyl 2-[N-[N-(4-chloro-6-methoxypyrimidin-2-yl)carbamoyl]sulfamoyl]benzoate"], "SMILES": "C(OCC)(=O)C1=C(S(NC(NC=2N=C(OC)C=C(Cl)N2)=O)(=O)=O)C=CC=C1", "physical_data": {"Molecular Weight": "414.82", "Molecular Formula": "C15H15ClN4O6S", "Melting Point": "198-201 \u00b0C"}}