{"cas_no": "91-02-1", "cn_name": "2-\u82ef\u7532\u9170\u57fa\u5421\u5576", "en_name": ["2-Benzoylpyridine", "Methanone, phenyl-2-pyridinyl-", "Ketone, phenyl 2-pyridyl", "Phenyl-2-pyridinylmethanone", "2-Benzoylpyridine", "Phenyl 2-pyridyl ketone", "2-Pyridyl phenyl ketone", "NSC 20887", "2\u2032-Benzoylpyridine", "1-(Pyridin-2\u2032-yl)-phenylmethanone"], "SMILES": "C(=O)(C1=CC=CC=C1)C2=CC=CC=N2", "physical_data": {"Molecular Weight": "183.21", "Molecular Formula": "C12H9NO", "Boiling Point": "317 \u00b0C", "Melting Point": "42 \u00b0C", "Density": "1.1458 g/cm\u00b3 @ Press: 20 Torr"}}