{"cas_no": "91-08-7", "cn_name": "\u7532\u82ef2,6-\u4e8c\u5f02\u6c30\u9178\u916f", "en_name": ["Toluene 2,6-diisocyanate", "Benzene, 1,3-diisocyanato-2-methyl-", "Isocyanic acid, 2-methyl-m-phenylene ester", "1,3-Diisocyanato-2-methylbenzene", "2,6-Diisocyanatotoluene", "m-Tolylene diisocyanate", "Toluene 2,6-diisocyanate", "Tolylene 2,6-diisocyanate", "2-Methyl-m-phenylene isocyanate", "2,6-Toluylene diisocyanate", "2,6-TDI", "2-Methyl-1,3-phenylene diisocyanate"], "SMILES": "N(=C=O)C1=C(C)C(N=C=O)=CC=C1", "physical_data": {"Molecular Weight": "174.16", "Molecular Formula": "C9H6N2O2", "Boiling Point": "129-133 \u00b0C @ Press: 18 Torr", "Melting Point": "18.3 \u00b0C", "Density": "1.22 g/cm\u00b3"}}