{"cas_no": "91-01-0", "cn_name": "\u4e8c\u82ef\u7532\u9187", "en_name": ["Benzhydrol", "Benzenemethanol, \u03b1-phenyl-", "Benzhydrol", "\u03b1-Phenylbenzenemethanol", "Diphenylmethanol", "Benzohydrol", "Diphenylcarbinol", "Benzhydryl alcohol", "Hydroxydiphenylmethane", "Diphenylmethyl alcohol", "\u03b1-Phenylbenzyl alcohol", "NSC 32150", "1,1-Diphenylmethanol"], "SMILES": "C(O)(C1=CC=CC=C1)C2=CC=CC=C2", "physical_data": {"Molecular Weight": "184.23", "Molecular Formula": "C13H12O", "Boiling Point": "298 \u00b0C", "Melting Point": "69 \u00b0C"}}