{"cas_no": "91-00-9", "cn_name": "\u4e8c\u82ef\u7532\u80fa", "en_name": ["Benzhydrylamine", "Benzenemethanamine, \u03b1-phenyl-", "Methylamine, 1,1-diphenyl-", "\u03b1-Phenylbenzenemethanamine", "\u03b1-Aminodiphenylmethane", "1,1-Diphenylmethylamine", "\u03b1-Phenylbenzylamine", "Benzhydrylamine", "Methanamine, 1,1-diphenyl-", "Aminodiphenylmethane", "(Diphenylmethyl)amine", "1-Amino-1-(phenylmethyl)benzene", "NSC 49127", "1,1-Diphenylmethanamine", "Diphenylmethamine"], "SMILES": "C(N)(C1=CC=CC=C1)C2=CC=CC=C2", "physical_data": {"Molecular Weight": "183.25", "Molecular Formula": "C13H13N", "Boiling Point": "304 \u00b0C", "Melting Point": "34 \u00b0C", "Density": "1.064 g/cm\u00b3"}}