{"cas_no": "91-09-8", "cn_name": "\u7532\u57fa-\u0391-D-\u5421\u5583\u6728\u7cd6", "en_name": ["Methyl \u03b1-D-xylopyranoside", "\u03b1-D-Xylopyranoside, methyl", "Xylopyranoside, methyl, \u03b1-D-", "Methyl \u03b1-D-xylopyranoside", "Methyl \u03b1-xyloside", "\u03b1-Methyl D-xyloside"], "SMILES": "O(C)C1C(O)C(O)C(O)CO1", "physical_data": {"Molecular Weight": "164.16", "Molecular Formula": "C6H12O5", "Melting Point": "91 \u00b0C"}}