{"cas_no": "91-04-3", "cn_name": "2-\u7f9f\u57fa-5-\u7532\u57fa\u95f4\u82ef\u4e8c\u7532\u9187", "en_name": ["2,6-Bis(hydroxymethyl)-p-cresol", "1,3-Benzenedimethanol, 2-hydroxy-5-methyl-", "\u03b11,\u03b13-Mesitylenediol, 2-hydroxy-", "2-Hydroxy-5-methyl-1,3-benzenedimethanol", "2,6-Dimethylol-4-methylphenol", "2,6-Bis(hydroxymethyl)-p-cresol", "2,6-Dimethylol-p-cresol", "\u03b11,\u03b13,2-Trihydroxymesitylene", "2,6-Bis(hydroxymethyl)-4-methylphenol", "2,6-Di(hydroxymethyl)-p-cresol", "NSC 15838", "DML-PC", "4-Methyl-2,6-bis(hydroxymethyl)phenol", "26DMPC", "AV Lite 26DMPC", "(2-Hydroxy-5-methyl-1,3-phenylene)dimethanol"], "SMILES": "C(O)C1=C(O)C(CO)=CC(C)=C1", "physical_data": {"Molecular Weight": "168.19", "Molecular Formula": "C9H12O3", "Melting Point": "128 \u00b0C"}}