{"cas_no": "91-16-7", "cn_name": "\u90bb\u82ef\u4e8c\u7532\u919a", "en_name": ["Veratrole", "Benzene, 1,2-dimethoxy-", "Benzene, o-dimethoxy-", "1,2-Dimethoxybenzene", "o-Dimethoxybenzene", "Pyrocatechol dimethyl ether", "Veratrol", "Veratrole", "O,O-Dimethylcatechol", "Methylguaiacol", "Catechol dimethyl ether", "o-Methoxyanisole", "o-Hydroquinone dimethyl ether", "2-Methoxyanisole", "NSC 16934"], "SMILES": "O(C)C1=C(OC)C=CC=C1", "physical_data": {"Molecular Weight": "138.16", "Molecular Formula": "C8H10O2", "Boiling Point": "206 \u00b0C", "Melting Point": "22.5 \u00b0C", "Density": "1.2052 g/cm\u00b3 @ Temp: 17 \u00b0C"}}