{"cas_no": "91-10-1", "cn_name": "2,6-\u4e8c\u7532\u6c27\u57fa\u82ef\u915a", "en_name": ["2,6-Dimethoxyphenol", "Phenol, 2,6-dimethoxy-", "2,6-Dimethoxyphenol", "Pyrogallol 1,3-dimethyl ether", "Syringol", "2-Hydroxy-1,3-dimethoxybenzene", "1,3-Dimethoxy-2-hydroxybenzene", "2,6-Dimethoxyphenic acid"], "SMILES": "O(C)C1=C(O)C(OC)=CC=C1", "physical_data": {"Molecular Weight": "154.16", "Molecular Formula": "C8H10O3", "Boiling Point": "261 \u00b0C", "Melting Point": "56.5 \u00b0C"}}