{"cas_no": "91-15-6", "cn_name": "1,2-\u4e8c\u6c30\u57fa\u82ef", "en_name": ["Phthalonitrile", "1,2-Benzenedicarbonitrile", "Phthalonitrile", "o-Dicyanobenzene", "Phthalodinitrile", "o-Benzenedinitrile", "1,2-Dicyanobenzene", "o-Cyanobenzonitrile", "o-Benzenedicarbonitrile", "1,2-Benzodinitrile", "1,2-Bis(cyano)benzene", "NSC 17562", "o-Benzodinitrile"], "SMILES": "C(#N)C1=C(C#N)C=CC=C1", "physical_data": {"Molecular Weight": "128.13", "Molecular Formula": "C8H4N2", "Boiling Point": "294 \u00b0C", "Melting Point": "138 \u00b0C", "Density": "1.238 g/cm\u00b3"}}