{"cas_no": "91-17-8", "cn_name": "\u8418\u70f7", "en_name": ["Decalin", "Naphthalene, decahydro-", "Decahydronaphthalene", "Bicyclo[4.4.0]decane", "Dec", "Naphthan", "Perhydronaphthalene", "Decalin", "Dekalin", "Decaline", "NSC 406139"], "SMILES": "C12C(CCCC1)CCCC2", "physical_data": {"Molecular Weight": "138.25", "Molecular Formula": "C10H18", "Boiling Point": "189-191 \u00b0C", "Melting Point": "-43 \u00b0C", "Density": "0.8965 g/cm\u00b3 @ Temp: 22 \u00b0C"}}