{"cas_no": "91-13-4", "cn_name": "1,2-\u4e8c(\u6eb4\u7532\u57fa)\u82ef", "en_name": ["1,2-Bis(bromomethyl)benzene", "Benzene, 1,2-bis(bromomethyl)-", "o-Xylene, \u03b1,\u03b1\u2032-dibromo-", "1,2-Bis(bromomethyl)benzene", "\u03b1,\u03b1\u2032-Dibromo-o-xylene", "o-Xylylene dibromide", "\u03b1,\u03b1\u2032-Dibromo-o-xylol", "o-Bis(bromomethyl)benzene", "1,2-Di(bromomethyl)benzene", "o-(Bromomethyl)benzyl bromide", "o-Di(bromomethyl)benzene", "2-(Bromomethyl)benzyl bromide", "\u03b1,\u03b1\u2032-Dibromo-1,2-xylene", "NSC 3986", "o-\u03b1,\u03b1\u2032-Dibromoxylene"], "SMILES": "C(Br)C1=C(CBr)C=CC=C1", "physical_data": {"Molecular Weight": "263.96", "Molecular Formula": "C8H8Br2", "Boiling Point": "140 \u00b0C @ Press: 20 Torr", "Melting Point": "95 \u00b0C"}}