{"cas_no": "91-19-0", "cn_name": "\u55b9\u5594\u5549", "en_name": ["Quinoxaline", "Quinoxaline", "1,4-Benzodiazine", "Benzoparadiazine", "Benzopyrazine", "Benzo[a]pyrazine", "1,4-Diazanaphthalene", "Phenopiazine", "Phenpiazine", "Quinazine", "1,4-Naphthyridine"], "SMILES": "C12=C(N=CC=N1)C=CC=C2", "physical_data": {"Molecular Weight": "130.15", "Molecular Formula": "C8H6N2", "Boiling Point": "229.5 \u00b0C", "Melting Point": "28 \u00b0C"}}