{"cas_no": "91-22-5", "cn_name": "\u55b9\u5549", "en_name": ["Quinoline", "Quinoline", "1-Azanaphthalene", "1-Benzazine", "Benzo[b]pyridine", "Leucol", "Leukol", "Benzopyridine", "Quinolin", "B 500", "Leucoline", "NSC 3396"], "SMILES": "C12=C(C=CC=C1)N=CC=C2", "physical_data": {"Molecular Weight": "129.16", "Molecular Formula": "C9H7N", "Boiling Point": "237.7 \u00b0C @ Press: 760 Torr", "Melting Point": "-14.78 \u00b0C", "Density": "1.0900 g/cm\u00b3 @ Temp: 25 \u00b0C"}}