{"cas_no": "91-20-3", "cn_name": "\u8418", "en_name": ["Naphthalene", "Naphthalene", "Moth flakes", "Tar camphor", "White tar", "Albocarbon", "Dezodorator", "Naphthene", "NSC 37565"], "SMILES": "C12=C(C=CC=C1)C=CC=C2", "physical_data": {"Molecular Weight": "128.17", "Molecular Formula": "C10H8", "Boiling Point": "217.9 \u00b0C @ Press: 760 Torr", "Melting Point": "80.2 \u00b0C", "Density": "1.162 g/cm\u00b3 @ Temp: 20 \u00b0C"}}