{"cas_no": "91-21-4", "cn_name": "\u56db\u6c22\u5f02\u55b9\u5549", "en_name": ["1,2,3,4-Tetrahydroisoquinoline", "Isoquinoline, 1,2,3,4-tetrahydro-", "1,2,3,4-Tetrahydroisoquinoline", "Tetrahydroisoquinoline", "1,2,3,4-Tetrahydro-2-isoquinoline", "1,2,3,4-Tetrahydro-2-azanaphthalene", "3,4-Dihydro-1H-isoquinoline", "NSC 15312", "1,2,3,4-Tetrahydroisoquinline"], "SMILES": "C=12C(=CC=CC1)CNCC2", "physical_data": {"Molecular Weight": "133.19", "Molecular Formula": "C9H11N", "Boiling Point": "232.5 \u00b0C", "Melting Point": "&lt;-15 \u00b0C", "Density": "1.064 g/cm\u00b3"}}