{"cas_no": "91-23-6", "cn_name": "2-\u785d\u57fa\u82ef\u7532\u919a", "en_name": ["2-Nitroanisole", "Benzene, 1-methoxy-2-nitro-", "Anisole, o-nitro-", "1-Methoxy-2-nitrobenzene", "2-Methoxynitrobenzene", "o-Nitroanisole", "o-Nitrophenyl methyl ether", "1-Nitro-2-methoxybenzene", "2-Nitroanisole", "2-Methoxy-1-nitrobenzene", "2-Nitromethoxybenzene", "o-Methoxynitrobenzene", "o-Nitrobenzene methyl ether", "NSC 5506"], "SMILES": "O(C)C1=C(N(=O)=O)C=CC=C1", "physical_data": {"Molecular Weight": "153.14", "Molecular Formula": "C7H7NO3", "Boiling Point": "277 \u00b0C", "Melting Point": "9.4 \u00b0C", "Density": "1.254 g/cm\u00b3 @ Temp: 20 \u00b0C"}}