{"cas_no": "91-33-8", "cn_name": "\u82c4\u567b\u55ea", "en_name": ["Benzthiazide", "2H-1,2,4-Benzothiadiazine-7-sulfonamide, 6-chloro-3-[[(phenylmethyl)thio]methyl]-, 1,1-dioxide", "2H-1,2,4-Benzothiadiazine-7-sulfonamide, 3-[(benzylthio)methyl]-6-chloro-, 1,1-dioxide", "P 1393", "Aquatag", "Benzothiazide", "Benzthiazide", "3-[(Benzylthio)methyl]-6-chloro-1,2,4-benzothiadiazine-7-sulfonamide 1,1-dioxide", "3-Benzylthiomethyl-6-chloro-2H-1,2,4-benzothiadiazine-7-sulfonamide 1,1-dioxide", "3-Benzylthiomethyl-6-chloro-7-sulfamoyl-1,2,4-benzothiadiazine 1,1-dioxide", "3-Benzylthiomethyl-6-chloro-7-sulfamyl-1,2,4-benzothiadiazine-1,1-dioxide", "Fovane", "Pfizer 1393", "Urese", "3-Benzylthiomethyl-6-chloro-7-sulfamyl-2H-1,2,4-benzothiadiazine 1,1-dioxide", "Freeuril", "Exosalt", "ExNa", "Lemazide", "Diucene", "Edemex", "Proaqua", "Regulon", "Dihydrex", "Diucen", "HyDrine"], "SMILES": "O=S1(=O)C=2C(NC(CSCC3=CC=CC=C3)=N1)=CC(Cl)=C(S(N)(=O)=O)C2", "physical_data": {"Molecular Weight": "431.94", "Molecular Formula": "C15H14ClN3O4S3", "Melting Point": "231-232 \u00b0C"}}