{"cas_no": "91-35-0", "cn_name": "2-\u6c28\u57fa\u82ef\u915a-4-(2'-\u7fa7\u57fa)\u78fa\u9170\u82ef\u80fa", "en_name": ["2-[[(3-Amino-4-hydroxyphenyl)sulfonyl]amino]benzoic acid", "Benzoic acid, 2-[[(3-amino-4-hydroxyphenyl)sulfonyl]amino]-", "Anthranilic acid, N-(4-hydroxymetanilyl)-", "2-[[(3-Amino-4-hydroxyphenyl)sulfonyl]amino]benzoic acid", "N-(4-Hydroxymetanilyl)anthranilic acid", "2-(3-Amino-4-hydroxyphenylsulfonamido)benzoicacid", "2-(3-Amino-4-hydroxyphenylsulfonamido)benzoic acid"], "SMILES": "N(S(=O)(=O)C1=CC(N)=C(O)C=C1)C2=C(C(O)=O)C=CC=C2", "physical_data": {"Molecular Weight": "308.31", "Molecular Formula": "C13H12N2O5S", "Melting Point": "213-215 \u00b0C"}}