{"cas_no": "91-49-6", "cn_name": "N-\u4e01\u57fa\u4e59\u9170\u82ef\u80fa", "en_name": ["Butylacetanilide", "Acetamide, N-butyl-N-phenyl-", "Acetanilide, N-butyl-", "N-Butyl-N-phenylacetamide", "BAA", "N-Butylacetanilide", "Butylacetanilide", "N-n-Butylacetanilide", "NSC 7662"], "SMILES": "N(CCCC)(C(C)=O)C1=CC=CC=C1", "physical_data": {"Molecular Weight": "191.27", "Molecular Formula": "C12H17NO", "Boiling Point": "281 \u00b0C @ Press: 760 Torr", "Melting Point": "24.5 \u00b0C", "Density": "0.9912 g/cm\u00b3 @ Temp: 20 \u00b0C"}}