{"cas_no": "91-44-1", "cn_name": "7-\u4e8c\u4e59\u6c28\u57fa-4-\u7532\u57fa\u9999\u8c46\u7d20", "en_name": ["Coumarin 1", "2H-1-Benzopyran-2-one, 7-(diethylamino)-4-methyl-", "Coumarin, 7-(diethylamino)-4-methyl-", "7-(Diethylamino)-4-methyl-2H-1-benzopyran-2-one", "4-Methyl-7-(diethylamino)coumarin", "7-(Diethylamino)-4-methylcoumarin", "Coumarin 1", "Coumarin 460", "Calcofluor White RW", "Blancophor AW", "Blancophor FFG", "Uvitex WGS", "MDAC", "Hiltamine Arctic White SOL", "Aclarat 8678", "Calcofluor White SD", "7D4MC", "Hakkol P", "Coumarin 47", "C 47", "DEMC", "C 47 (coumarin derivative)", "Blankophor SOL", "Fluorescent Brightener 140", "C.I. 551100", "C.I. Fluorescent Brightener 140", "Rylux VPA", "Tinopal SWN", "Uvitex SWN", "C.I. Fluorescent Brightener 52", "Blancol WNS", "Kayaphor WN", "Leucophor WS", "Leukophor WS", "Fluorescent Brightener 52", "Whitex WS", "Whitefluor B", "Neo-Super HR 1", "HR 1", "NSC 61830", "C.I. Fluorescent Brightening Agent 52", "Rylux VPA-T", "Diethylamino-4-methylcoumarin", "NF-MC", "Optiblanc SPL 10", "7-(Diethylamino)-4-methyl-2H-chromen-2-one", "Calcofluor RW", "Brightener SWN", "7-Diethylamino-4-methylbenzopyran-2-one"], "SMILES": "CC=1C=2C(=CC(N(CC)CC)=CC2)OC(=O)C1", "physical_data": {"Molecular Weight": "231.29", "Molecular Formula": "C14H17NO2", "Melting Point": "89 \u00b0C"}}