{"cas_no": "91-40-7", "cn_name": "N-\u82ef\u57fa\u90bb\u6c28\u57fa\u82ef\u7532\u9178", "en_name": ["N-Phenylanthranilic acid", "Benzoic acid, 2-(phenylamino)-", "Anthranilic acid, N-phenyl-", "2-(Phenylamino)benzoic acid", "o-Anilinobenzoic acid", "2-Anilinobenzoic acid", "Diphenylamine-2-carboxylic acid", "Fenamic acid", "2-Carboxydiphenylamine", "N-Phenylanthranilic acid", "N-Phenyl-o-aminobenzoic acid", "N-Phenyl-2-aminobenzoic acid", "o-Carboxydiphenylamine", "Diphenylamine-2-carboxylate", "o-(Phenylamino)benzoic acid", "NSC 215211", "NSC 4273", "DPC", "DPC (chloride channel inhibitor)"], "SMILES": "N(C1=C(C(O)=O)C=CC=C1)C2=CC=CC=C2", "physical_data": {"Molecular Weight": "213.23", "Molecular Formula": "C13H11NO2", "Melting Point": "183.5 \u00b0C"}}