{"cas_no": "91-48-5", "cn_name": "\u82ef\u53ef\u4e01\u9178\u4e59\u9178\u916f", "en_name": ["(E)-\u03b1-Phenylcinnamic acid", "Benzeneacetic acid, \u03b1-(phenylmethylene)-, (\u03b1E)-", "Acrylic acid, 2,3-diphenyl-, (E)-", "Benzeneacetic acid, \u03b1-(phenylmethylene)-, (E)-", "Acrylic acid, 2,3-diphenyl-, trans-", "(\u03b1E)-\u03b1-(Phenylmethylene)benzeneacetic acid", "trans-2,3-Diphenylacrylic acid", "trans-2,3-Diphenylpropenoic acid", "trans-\u03b1-Phenylcinnamic acid", "(E)-\u03b1-Stilbenecarboxylic acid", "(E)-2,3-Diphenylpropenoic acid", "(E)-\u03b1-(Phenylmethylene)benzeneacetic acid", "(E)-\u03b1-Phenylcinnamic acid", "(E)-2,3-Diphenyl-2-propenoic acid", "(E)-2,3-Diphenylacrylic acid", "trans-2,3-Diphenyl-2-propenoic acid", "(E)-2,3-Diphenylacrylic acid"], "SMILES": "C(=CC1=CC=CC=C1)(C(O)=O)C2=CC=CC=C2", "physical_data": {"Molecular Weight": "224.25", "Molecular Formula": "C15H12O2", "Melting Point": "170 \u00b0C"}}