{"cas_no": "91-56-5", "cn_name": "\u975b\u7ea2", "en_name": ["Isatin", "1H-Indole-2,3-dione", "Indole-2,3-dione", "o-Aminobenzoylformic anhydride", "2,3-Diketoindoline", "2,3-Dioxoindoline", "2,3-Indolinedione", "Isatic acid lactam", "Isatin", "Isatinic acid anhydride", "Pseudoisatin", "2,3-Dioxo-2,3-dihydroindole", "Isatine", "2,3-Dihydro-1H-indole-2,3-dione", "2,3-Indolindione", "NSC 9262", "2,3-Dihydroindole-2,3-dione", "MeSH ID: D007510"], "SMILES": "O=C1C=2C(NC1=O)=CC=CC2", "physical_data": {"Molecular Weight": "147.13", "Molecular Formula": "C8H5NO2", "Boiling Point": "30-40 \u00b0C", "Melting Point": "203 \u00b0C (decomp)"}}