{"cas_no": "91-55-4", "cn_name": "2,3-\u4e8c\u7532\u57fa\u5432\u54da", "en_name": ["2,3-Dimethylindole", "1H-Indole, 2,3-dimethyl-", "Indole, 2,3-dimethyl-", "2,3-Dimethyl-1H-indole", "2,3-Dimethylindole", "NSC 24936"], "SMILES": "CC=1C=2C(NC1C)=CC=CC2", "physical_data": {"Molecular Weight": "145.20", "Molecular Formula": "C10H11N", "Boiling Point": "285 \u00b0C", "Melting Point": "106 \u00b0C"}}