{"cas_no": "91-53-2", "cn_name": "\u4e59\u6c27\u57fa\u55b9\u5549", "en_name": ["Ethoxyquin", "Quinoline, 6-ethoxy-1,2-dihydro-2,2,4-trimethyl-", "6-Ethoxy-1,2-dihydro-2,2,4-trimethylquinoline", "1,2-Dihydro-6-ethoxy-2,2,4-trimethylquinoline", "1,2-Dihydro-2,2,4-trimethyl-6-ethoxyquinoline", "EMQ", "EQ", "Ethoxyquin", "Ethoxyquine", "6-Ethoxy-2,2,4-trimethyl-1,2-dihydroquinoline", "Santoflex A", "Santoflex AW", "2,2,4-Trimethyl-6-ethoxy-1,2-dihydroquinoline", "Stop-Scald", "Niflex", "Santoquine", "Santoquin", "Antioxidant EC", "Permanax 103", "Amea 100", "Dawe's nutrigard", "2,2,4-Trimethyl-1,2-dihydro-6-ethoxyquinoline", "Quinol ED", "Nocrac AW", "Niflex D", "Antox", "Aries Antox", "Antage AW", "Raluquin", "Nonflex AW", "Nocrac AW-G", "NSC 6795", "Tenox II", "BIOX-S", "Biox SE", "AW", "Antioxidant AW", "Nonflex AW-P", "Rendox EQ", "MeSH ID: D005015"], "SMILES": "CC=1C=2C(=CC=C(OCC)C2)NC(C)(C)C1", "physical_data": {"Molecular Weight": "217.31", "Molecular Formula": "C14H19NO", "Boiling Point": "123-125 \u00b0C @ Press: 2 Torr", "Melting Point": "~0 \u00b0C (approx)", "Density": "1.029-1.031 g/cm\u00b3 @ Temp: 25 \u00b0C"}}