{"cas_no": "91-59-8", "cn_name": "2-\u8418\u80fa", "en_name": ["2-Naphthylamine", "2-Naphthalenamine", "2-Naphthylamine", "C.I. 37270", "2-Aminonaphthalene", "Fast Scarlet Base B", "\u03b2-Naphthylamine", "Naphthalen-2-ylamine", "\u03b2-Aminonaphthalene", "o-Aminonaphthalene", "MeSH ID: D015081"], "SMILES": "NC1=CC2=C(C=C1)C=CC=C2", "physical_data": {"Molecular Weight": "143.19", "Molecular Formula": "C10H9N", "Boiling Point": "306 \u00b0C", "Melting Point": "111-113 \u00b0C", "Density": "1.061 g/cm\u00b3 @ Temp: 98 \u00b0C"}}