{"cas_no": "91-58-7", "cn_name": "2-\u6c2f\u8418", "en_name": ["2-Chloronaphthalene", "Naphthalene, 2-chloro-", "2-Chloronaphthalene", "\u03b2-Chloronaphthalene", "PCN 2"], "SMILES": "ClC1=CC2=C(C=C1)C=CC=C2", "physical_data": {"Molecular Weight": "162.62", "Molecular Formula": "C10H7Cl", "Boiling Point": "119.7 \u00b0C @ Press: 11 Torr", "Melting Point": "59.5 \u00b0C"}}