{"cas_no": "91-57-6", "cn_name": "2-\u7532\u57fa\u8418", "en_name": ["2-Methylnaphthalene", "Naphthalene, 2-methyl-", "2-Methylnaphthalene", "\u03b2-Methylnaphthalene", "NSC 3575"], "SMILES": "CC1=CC2=C(C=C1)C=CC=C2", "physical_data": {"Molecular Weight": "142.20", "Molecular Formula": "C11H10", "Boiling Point": "241.1 \u00b0C", "Melting Point": "37-38 \u00b0C", "Density": "0.99 g/cm\u00b3"}}