{"cas_no": "91-52-1", "cn_name": "2,4-\u4e8c\u7532\u6c27\u57fa\u82ef\u7532\u9178", "en_name": ["2,4-Dimethoxybenzoic acid", "Benzoic acid, 2,4-dimethoxy-", "2,4-Dimethoxybenzoic acid", "NSC 6316"], "SMILES": "O(C)C1=C(C(O)=O)C=CC(OC)=C1", "physical_data": {"Molecular Weight": "182.17", "Molecular Formula": "C9H10O4", "Melting Point": "109 \u00b0C"}}