{"cas_no": "91-61-2", "cn_name": "\u55b9\u5549,1,2,3,4-\u56db\u6c22-6-\u7532\u57fa\u55b9\u5549", "en_name": ["6-Methyl-1,2,3,4-tetrahydroquinoline", "Quinoline, 1,2,3,4-tetrahydro-6-methyl-", "1,2,3,4-Tetrahydro-6-methylquinoline", "Civettal", "6-Methyl-1,2,3,4-tetrahydroquinoline", "NSC 65606", "6-Methyltetrahydroquinoline"], "SMILES": "CC=1C=C2C(=CC1)NCCC2", "physical_data": {"Molecular Weight": "147.22", "Molecular Formula": "C10H13N", "Boiling Point": "159 \u00b0C @ Press: 28 Torr", "Melting Point": "36-37 \u00b0C"}}