{"cas_no": "91-62-3", "cn_name": "6-\u7532\u57fa\u55b9\u5549", "en_name": ["6-Methylquinoline", "Quinoline, 6-methyl-", "6-Methylquinoline", "NSC 4152"], "SMILES": "CC1=CC2=C(C=C1)N=CC=C2", "physical_data": {"Molecular Weight": "143.19", "Molecular Formula": "C10H9N", "Boiling Point": "258.6 \u00b0C", "Melting Point": "-22 \u00b0C"}}