{"cas_no": "91-64-5", "cn_name": "\u9999\u8c46\u7d20", "en_name": ["Coumarin", "2H-1-Benzopyran-2-one", "Coumarin", "1,2-Benzopyrone", "cis-o-Coumarinic acid lactone", "Coumarinic anhydride", "o-Hydroxycinnamic acid lactone", "Tonka Bean Camphor", "2-Propenoic acid, 3-(2-hydroxyphenyl)-, \u03b4-lactone", "Benzo-\u03b1-pyrone", "Rattex", "5,6-Benzo-2-pyrone", "NSC 8774", "2-Chromenone", "2H-Chromen-2-one", "2H-Benzopyran-2-one", "Lympedim", "Rhodiascent Extra Pure"], "SMILES": "O=C1OC=2C(C=C1)=CC=CC2", "physical_data": {"Molecular Weight": "146.14", "Molecular Formula": "C9H6O2", "Boiling Point": "301.71 \u00b0C", "Melting Point": "71 \u00b0C", "Density": "0.935 g/cm\u00b3 @ Temp: 20 \u00b0C"}}