{"cas_no": "91-66-7", "cn_name": "N,N-\u4e8c\u4e59\u57fa\u82ef\u80fa", "en_name": ["N,N-Diethylaniline", "Benzenamine, N,N-diethyl-", "Aniline, N,N-diethyl-", "N,N-Diethylbenzenamine", "N,N-Diethylaminobenzene", "Diethylaniline", "Diethylphenylamine", "N,N-Diethylaniline", "DEA", "(Diethylamino)benzene", "NSC 7205", "NL 64-10P", "N-Phenyldiethylamine"], "SMILES": "N(CC)(CC)C1=CC=CC=C1", "physical_data": {"Molecular Weight": "149.23", "Molecular Formula": "C10H15N", "Boiling Point": "216.3 \u00b0C", "Melting Point": "-38.8 \u00b0C", "Density": "0.9307 g/cm\u00b3 @ Temp: 20 \u00b0C"}}