{"cas_no": "91-60-1", "cn_name": "2-\u8418\u786b\u9187", "en_name": ["2-Naphthalenethiol", "2-Naphthalenethiol", "RPA 2", "2-Mercaptonaphthalene", "\u03b2-Naphthyl mercaptan", "2-Naphthyl mercaptan", "\u03b2-Thionaphthol", "\u03b2-Mercaptonaphthalene", "\u03b2-Naphthalenethiol", "2-Thionaphthol", "Vulcamel TBN", "Renacit 1", "NSC 4749"], "SMILES": "SC1=CC2=C(C=C1)C=CC=C2", "physical_data": {"Molecular Weight": "160.24", "Molecular Formula": "C10H8S", "Boiling Point": "288 \u00b0C", "Melting Point": "81 \u00b0C"}}