{"cas_no": "91-63-4", "cn_name": "2-\u7532\u57fa\u55b9\u5549", "en_name": ["2-Methylquinoline", "Quinoline, 2-methyl-", "Quinaldine", "2-Methylquinoline", "Khinaldin", "NSC 3397", "2-Methylchinoline"], "SMILES": "CC1=NC2=C(C=C1)C=CC=C2", "physical_data": {"Molecular Weight": "143.19", "Molecular Formula": "C10H9N", "Boiling Point": "246.5 \u00b0C", "Melting Point": "-1.5 \u00b0C", "Density": "1.038 g/cm\u00b3 @ Temp: 20 \u00b0C"}}