{"cas_no": "91-67-8", "cn_name": "N,N-\u4e8c\u4e59\u57fa\u95f4\u7532\u82ef\u80fa", "en_name": ["N,N-Diethyl-m-toluidine", "Benzenamine, N,N-diethyl-3-methyl-", "m-Toluidine, N,N-diethyl-", "N,N-Diethyl-3-methylbenzenamine", "3-(Diethylamino)-1-methylbenzene", "3-(Diethylamino)toluene", "m-Methyl(diethylamino)benzene", "N,N-Diethyl-3-methylaniline", "m-Methyl-N,N-diethylaniline", "3-(N,N-Diethylamino)toluene", "1-(Diethylamino)-3-methylbenzene", "3-Methyl-N,N-diethylaniline", "N,N-Diethyl-m-toluidine", "N,N-Diethyl-m-methylaniline", "NSC 96629"], "SMILES": "N(CC)(CC)C1=CC(C)=CC=C1", "physical_data": {"Molecular Weight": "163.26", "Molecular Formula": "C11H17N", "Boiling Point": "99 \u00b0C @ Press: 13.5 Torr"}}