{"cas_no": "91-65-6", "cn_name": "N,N-\u4e8c\u4e59\u57fa\u73af\u5df1\u80fa", "en_name": ["N,N-Diethylcyclohexylamine", "Cyclohexanamine, N,N-diethyl-", "Cyclohexylamine, N,N-diethyl-", "N,N-Diethylcyclohexanamine", "N,N-Diethylcyclohexylamine", "Diethylcyclohexylamine", "Cyclohexyldiethylamine", "NSC 5313", "N-Cyclohexyl-N,N-diethylamine"], "SMILES": "N(CC)(CC)C1CCCCC1", "physical_data": {"Molecular Weight": "155.28", "Molecular Formula": "C10H21N", "Boiling Point": "193 \u00b0C", "Melting Point": "172 \u00b0C", "Density": "0.8445 g/cm\u00b3 @ Temp: 25 \u00b0C"}}