{"cas_no": "91-68-9", "cn_name": "3-\u7f9f\u57fa-N,N-\u4e8c\u4e59\u57fa\u82ef\u80fa", "en_name": ["3-(Diethylamino)phenol", "Phenol, 3-(diethylamino)-", "Phenol, m-(diethylamino)-", "3-(Diethylamino)phenol", "m-(Diethylamino)phenol", "N,N-Diethyl-m-aminophenol", "3-Hydroxy-N,N-diethylaniline", "N,N-Diethyl-3-hydroxyaniline", "N,N-Diethyl-3-aminophenol", "m-Hydroxy-N,N-diethylaniline", "NSC 93934", "3-(N,N-Diethylamino)phenol", "N,N-Diethyl-3-Hydroxybenzenamine"], "SMILES": "N(CC)(CC)C1=CC(O)=CC=C1", "physical_data": {"Molecular Weight": "165.23", "Molecular Formula": "C10H15NO", "Boiling Point": "276 \u00b0C", "Melting Point": "78 \u00b0C"}}