{"cas_no": "91-75-8", "cn_name": "\u5b89\u4ed6\u5511\u5549", "en_name": ["Antazoline", "1H-Imidazole-2-methanamine, 4,5-dihydro-N-phenyl-N-(phenylmethyl)-", "2-Imidazoline, 2-[(N-benzylanilino)methyl]-", "4,5-Dihydro-N-phenyl-N-(phenylmethyl)-1H-imidazole-2-methanamine", "Allergan A", "Antazoline", "Antistine", "2-[(N-Benzylanilino)methyl]-2-imidazoline", "Phenazoline", "Analergine", "MeSH ID: D000865"], "SMILES": "N(CC1=CC=CC=C1)(CC=2NCCN2)C3=CC=CC=C3", "physical_data": {"Molecular Weight": "265.35", "Molecular Formula": "C17H19N3", "Melting Point": "120-122 \u00b0C"}}