{"cas_no": "91-77-0", "cn_name": "2,4-\u4e8c\u6c28\u57fa-6-\u4e8c\u70ef\u4e19\u6c28\u57fa-1,3,5-\u4e09\u55ea", "en_name": ["N2,N2-Di-2-propen-1-yl-1,3,5-triazine-2,4,6-triamine", "1,3,5-Triazine-2,4,6-triamine, N2,N2-di-2-propen-1-yl-", "Melamine, N2,N2-diallyl-", "1,3,5-Triazine-2,4,6-triamine, N,N-di-2-propenyl-", "N2,N2-Di-2-propen-1-yl-1,3,5-triazine-2,4,6-triamine", "U-7720", "DAM", "N,N-Diallylmelamine", "Upjohn 7720", "Diallylmelamine", "2,4-Diamino-6-diallylamino-1,3,5-triazine", "NSC 4420", "2-N,2-N-Bis(prop-2-enyl)-1,3,5-triazine-2,4,6-triamine"], "SMILES": "N(CC=C)(CC=C)C=1N=C(N)N=C(N)N1", "physical_data": {"Molecular Weight": "206.25", "Molecular Formula": "C9H14N6", "Melting Point": "144-145 \u00b0C"}}