{"cas_no": "91-73-6", "cn_name": "N,N-\u4e8c\u82c4\u57fa\u82ef\u80fa", "en_name": ["Dibenzylaniline", "Benzenemethanamine, N-phenyl-N-(phenylmethyl)-", "Dibenzylamine, N-phenyl-", "N-Phenyl-N-(phenylmethyl)benzenemethanamine", "N,N-Dibenzylaniline", "Benzenamine, N,N-bis(phenylmethyl)-", "Dibenzylaniline", "N-Phenyldibenzylamine", "NSC 6243"], "SMILES": "N(CC1=CC=CC=C1)(CC2=CC=CC=C2)C3=CC=CC=C3", "physical_data": {"Molecular Weight": "273.37", "Molecular Formula": "C20H19N", "Boiling Point": "226 \u00b0C @ Press: 10 Torr", "Melting Point": "69 \u00b0C", "Density": "1.04436 g/cm\u00b3 @ Temp: 80 \u00b0C"}}