{"cas_no": "91-78-1", "cn_name": "\u516d\u6c22\u4e09\u82ef\u4e09\u6c30", "en_name": ["Hexahydro-1,3,5-triphenyl-1,3,5-triazine", "1,3,5-Triazine, hexahydro-1,3,5-triphenyl-", "s-Triazine, hexahydro-1,3,5-triphenyl-", "Hexahydro-1,3,5-triphenyl-1,3,5-triazine", "Anhydroformaldehyde aniline", "1,3,5-Triphenylhexahydro-s-triazine", "1,3,5-Triphenylhexahydro-1,3,5-triazine", "N,N,N-Triphenylhexahydro-s-triazine", "NSC 9419", "1,3,5-Triphenyl-1,3,5-triazacyclohexane", "1,3,5-Triphenyl-1,3,5-triazine", "Hexahydro-1,3,5-triphenyl-s-triazine", "1,3,5-Triphenyl-1,3,5-triazinane"], "SMILES": "N1(CN(CN(C1)C2=CC=CC=C2)C3=CC=CC=C3)C4=CC=CC=C4", "physical_data": {"Molecular Weight": "315.41", "Molecular Formula": "C21H21N3", "Boiling Point": "185 \u00b0C", "Melting Point": "144 \u00b0C"}}