{"cas_no": "91-76-9", "cn_name": "\u82ef\u4ee3\u4e09\u805a\u6c30\u80fa", "en_name": ["Benzoguanamine", "1,3,5-Triazine-2,4-diamine, 6-phenyl-", "s-Triazine, 2,4-diamino-6-phenyl-", "6-Phenyl-1,3,5-triazine-2,4-diamine", "Benzoguanimine", "4,6-Diamino-2-phenyl-s-triazine", "2,4-Diamino-6-phenyl-s-triazine", "2-Phenyl-4,6-diamino-1,3,5-triazine", "Benzoguanamine", "ENT 60118", "2,4-Diamino-6-phenyl-1,3,5-triazine", "2-Phenyl-4,6-diamino-s-triazine", "2,6-Diamino-4-phenyl-1,3,5-triazine", "NSC 3267", "Nikaganamine", "Benzoquanamine", "6-Phenyl-2,4-diamino-1,3,5-triazine", "2,4-Diamino-6-phenyltriazine"], "SMILES": "NC1=NC(=NC(N)=N1)C2=CC=CC=C2", "physical_data": {"Molecular Weight": "187.20", "Molecular Formula": "C9H9N5", "Melting Point": "227-228 \u00b0C", "Density": "1.40 g/cm\u00b3 @ Temp: 25 \u00b0C"}}