{"cas_no": "91-85-0", "cn_name": "\u677e\u9f50\u62c9\u654f", "en_name": ["Thonzylamine", "1,2-Ethanediamine, N1-[(4-methoxyphenyl)methyl]-N2,N2-dimethyl-N1-2-pyrimidinyl-", "Pyrimidine, 2-[[2-(dimethylamino)ethyl](p-methoxybenzyl)amino]-", "1,2-Ethanediamine, N-[(4-methoxyphenyl)methyl]-N\u2032,N\u2032-dimethyl-N-2-pyrimidinyl-", "N1-[(4-Methoxyphenyl)methyl]-N2,N2-dimethyl-N1-2-pyrimidinyl-1,2-ethanediamine", "Neohetramine", "Thonzylamine", "2-[p-Methoxybenzyl-(2-dimethylaminoethyl)amino]pyrimidine", "1,2-Ethanediamine N1-[(4-methoxyphenyl)methyl]-N2,N2-dimethyl-N1-2-pyrimidinyl-"], "SMILES": "N(CC1=CC=C(OC)C=C1)(CCN(C)C)C=2N=CC=CN2", "physical_data": {"Molecular Weight": "286.37", "Molecular Formula": "C16H22N4O", "Boiling Point": "185-187 \u00b0C @ Press: 2.2 Torr"}}