{"cas_no": "91-88-3", "cn_name": "N-\u4e59\u57fa-N-\u7f9f\u4e59\u57fa\u95f4\u7532\u82ef\u80fa", "en_name": ["3-Methyl-N-ethyl-N-(\u03b2-hydroxyethyl)aniline", "Ethanol, 2-[ethyl(3-methylphenyl)amino]-", "Ethanol, 2-(N-ethyl-m-toluidino)-", "2-[Ethyl(3-methylphenyl)amino]ethanol", "2-(N-Ethyl-m-toluidino)ethanol", "N-Ethyl-N-(2-hydroxyethyl)-3-methylaniline", "3-Methyl-N-ethyl-N-(\u03b2-hydroxyethyl)aniline", "N-Ethyl-N-(\u03b2-hydroxyethyl)-m-toluidine", "N-Ethyl-N-(2-hydroxyethyl)-m-toluidine", "NSC 89746", "2-(N-Ethyl-3-methylanilino)ethanol", "2-[Ethyl(3-methylphenyl)amino]ethan-1-ol", "2-(Ethyl(m-tolyl)amino)ethanol"], "SMILES": "N(CCO)(CC)C1=CC(C)=CC=C1", "physical_data": {"Molecular Weight": "179.26", "Molecular Formula": "C11H17NO", "Boiling Point": "128-133 \u00b0C @ Press: 3 Torr"}}