{"cas_no": "91-97-4", "cn_name": "\u4e8c\u7532\u57fa\u8054\u82ef\u4e8c\u5f02\u6c30\u9178\u916f", "en_name": ["3,3\u2032-Dimethylbiphenyl 4,4\u2032-diisocyanate", "1,1\u2032-Biphenyl, 4,4\u2032-diisocyanato-3,3\u2032-dimethyl-", "Isocyanic acid, 3,3\u2032-dimethyl-4,4\u2032-biphenylylene ester", "4,4\u2032-Diisocyanato-3,3\u2032-dimethyl-1,1\u2032-biphenyl", "Bitolylene diisocyanate", "3,3\u2032-Dimethyl-4,4\u2032-biphenylylene diisocyanate", "Nacconate 200", "3,3\u2032-Dimethylbiphenyl 4,4\u2032-diisocyanate", "4,4\u2032-Diisocyanato-3,3\u2032-bitolyl", "3,3\u2032-Bitolylene-4,4\u2032-diisocyanate", "3,3\u2032-Dimethyl-4,4\u2032-biphenylene isocyanate", "3,3\u2032-Dimethyl-4,4\u2032-diphenylene diisocyanate", "4,4\u2032-Diisocyanato-3,3\u2032-dimethylbiphenyl", "NSC 9599", "o-Tolidine diisocyanate", "4,4\u2032-Diisocyanato-3,3-dimethylbiphenyl", "3,3\u2032-Dimethyl-4,4\u2032-diisocyanatobiphenyl", "TODI", "4,4\u2032-Diisocyanato-3,3\u2032-dimethyldiphenyl", "3,3\u2032-Dimethyl-4,4\u2032-biphenylene diisocyanate", "1-Isocyanato-4-(4-isocyanato-3-methylphenyl)-2-methylbenzene"], "SMILES": "CC=1C=C(C=CC1N=C=O)C2=CC(C)=C(N=C=O)C=C2", "physical_data": {"Molecular Weight": "264.28", "Molecular Formula": "C16H12N2O2", "Melting Point": "69.5-70.5 \u00b0C"}}