{"cas_no": "91-99-6", "cn_name": "N,N-\u53cc(2-\u7f9f\u57fa\u4e59\u57fa)-\u95f4\u7532\u82ef\u80fa", "en_name": ["m-Tolyldiethanolamine", "Ethanol, 2,2\u2032-[(3-methylphenyl)imino]bis-", "Ethanol, 2,2\u2032-(m-tolylimino)di-", "2,2\u2032-[(3-Methylphenyl)imino]bis[ethanol]", "Diethanol-m-toluidine", "m-Tolyldiethanolamine", "N,N-Bis(2-hydroxyethyl)-m-toluidine", "2,2\u2032-(m-Tolylimino)diethanol", "N,N-Bis(2-hydroxyethyl)-3-methylaniline", "N,N-Bis(\u03b2-hydroxyethyl)-3-methylaniline", "N,N-Di(\u03b2-hydroxyethyl)-m-toluidine", "Emery 5709", "N,N-Bis(2-hydroxyethyl)-3-toluidine", "NSC 7488", "N,N-Di(2-hydroxyethyl)-m-toluidine", "2,2\u2032-(m-Tolylazanediyl)diethanol", "2-[(2-Hydroxyethyl)(3-methylphenyl)amino]ethan-1-ol", "2-[N-(2-Hydroxyethyl)-3-methylanilino]ethanol"], "SMILES": "N(CCO)(CCO)C1=CC(C)=CC=C1", "physical_data": {"Molecular Weight": "195.26", "Molecular Formula": "C11H17NO2", "Boiling Point": "160-165 \u00b0C @ Press: 1 Torr", "Melting Point": "65-67 \u00b0C"}}