{"cas_no": "91-94-1", "cn_name": "3,3'-\u4e8c\u6c2f\u8054\u82ef\u80fa", "en_name": ["3,3\u2032-Dichlorobenzidine", "[1,1\u2032-Biphenyl]-4,4\u2032-diamine, 3,3\u2032-dichloro-", "Benzidine, 3,3\u2032-dichloro-", "3,3\u2032-Dichloro[1,1\u2032-biphenyl]-4,4\u2032-diamine", "C.I. 23060", "o,o\u2032-Dichlorobenzidine", "3,3\u2032-Dichlorobenzidine", "3,3\u2032-Dichlorobiphenyl-4,4\u2032-diamine", "3,3\u2032-Dichloro-4,4\u2032-diaminobiphenyl", "Curithane C 126", "4,4\u2032-Diamino-3,3\u2032-dichlorodiphenyl", "4,4\u2032-Diamino-3,3\u2032-dichlorobiphenyl", "4\u2032-Amino-3,3\u2032-dichloro[1,1\u2032-biphenyl]-4-ylamine", "3,3\u2032-Dichloro-p,p\u2032-bianiline", "NSC 154073", "4,4\u2032-Bis(2-chloroaniline)", "MeSH ID: D015101"], "SMILES": "ClC=1C=C(C=CC1N)C2=CC(Cl)=C(N)C=C2", "physical_data": {"Molecular Weight": "253.13", "Molecular Formula": "C12H10Cl2N2", "Boiling Point": "402 \u00b0C", "Melting Point": "132-133 \u00b0C"}}