{"cas_no": "91-95-2", "cn_name": "3,3'-\u4e8c\u6c28\u57fa\u8054\u82ef\u80fa", "en_name": ["3,3\u2032-Diaminobenzidine", "[1,1\u2032-Biphenyl]-3,3\u2032,4,4\u2032-tetramine", "3,3\u2032,4,4\u2032-Biphenyltetramine", "3,3\u2032-Diaminobenzidine", "3,3\u2032,4,4\u2032-Tetraaminodiphenyl", "3,3\u2032,4,4\u2032-Tetraaminobiphenyl", "DAB", "NSC 76152", "Biphenyl-3,3\u2032,4,4\u2032-tetraamine", "Betazoid DAB", "3,4,3\u2032,4\u2032-Tetraaminobiphenyl", "4-(3,4-Diaminophenyl) benzene-1,2-diamine", "MeSH ID: D015100"], "SMILES": "NC=1C=C(C=CC1N)C2=CC(N)=C(N)C=C2", "physical_data": {"Molecular Weight": "214.27", "Molecular Formula": "C12H14N4", "Melting Point": "178 \u00b0C"}}