{"cas_no": "91-96-3", "cn_name": "\u53cc\u4e59\u9170\u4e59\u9170-3,3'-\u4e8c\u7532\u57fa\u8054\u82ef\u80fa", "en_name": ["Naphtanilide G", "Butanamide, N,N\u2032-(3,3\u2032-dimethyl[1,1\u2032-biphenyl]-4,4\u2032-diyl)bis[3-oxo-", "4\u2032,4\u2032\u2032\u2032-Bi-o-acetoacetotoluidide", "N,N\u2032-(3,3\u2032-Dimethyl[1,1\u2032-biphenyl]-4,4\u2032-diyl)bis[3-oxobutanamide]", "C.I. 37610", "Acna Naphthol G", "Amanil Naphthol AS-G", "Amarthol AS-G", "Arlanthol ASG", "p,p\u2032-Bis(o-acetoacetotoluidide)", "Cibanaphthol AG", "C.I. Azoic Coupling Component 5", "Daito Grounder G", "Diacetylacetotolidide", "Hiltonaphthol AS-G", "Kambothol ASG", "Kiwa Grounder G", "Mitsui Naphthozol G", "Naphtanilide G", "Naphtazol J", "Naphthanil G", "Naphthoide G", "Naphthol AS-G Dispersible", "Naphthol AS-G Supra", "Naphtoelan G", "Naphtol AS-G", "Naphtol AS-G Supra", "Sanatol AS-G", "Sanatol G", "Solunaptol YL", "Tulathol AS-G", "Ultrazol G", "3,3\u2032-Dimethyl-4,4\u2032-bis(acetoacetylamino)biphenyl", "N,N\u2032-Bis(acetoacetyl)-3,3\u2032-dimethylbenzidine", "4,4\u2032-Bis(o-acetoacetotoluidide)", "4,4\u2032-Bis(acetoacetylamino)-3,3\u2032-dimethylbiphenyl", "Naphthol AS-G", "4,4\u2032-Bis(acetoacetamido)-3,3\u2032-dimethylbiphenyl", "4,4\u2032-Bis(acetoacetamido)-3,3\u2032-dimethyl-1,1\u2032-biphenyl", "Naphthol G", "NSC 37212", "NSC 50639", "Napthol ASG", "Red B Base", "Dycosthol AS-G", "Conazoic E", "Naftol AS-G", "Hebeithol AS-G"], "SMILES": "CC=1C=C(C=CC1NC(CC(C)=O)=O)C2=CC(C)=C(NC(CC(C)=O)=O)C=C2", "physical_data": {"Molecular Weight": "380.44", "Molecular Formula": "C22H24N2O4", "Boiling Point": "353.4 \u00b0C", "Melting Point": "212 \u00b0C"}}