{"cas_no": "910-31-6", "cn_name": "\u6c2f\u5316\u80c6\u56fa\u9187", "en_name": ["Cholesteryl chloride", "Cholest-5-ene, 3-chloro-, (3\u03b2)-", "Cholest-5-ene, 3\u03b2-chloro-", "(3\u03b2)-3-Chlorocholest-5-ene", "3-Chlorocholestene", "Cholesteryl chloride", "3\u03b2-Chlorocholest-5-ene", "3\u03b2-Cholesteryl chloride", "Cholesterol chloride", "NSC 2084"], "SMILES": "CC12C(C3C(C4(C)C(=CC3)CC(Cl)CC4)CC1)CCC2C(CCCC(C)C)C", "physical_data": {"Molecular Weight": "405.10", "Molecular Formula": "C27H45Cl", "Melting Point": "103.4-104.5 \u00b0C", "Density": "1.040 g/cm\u00b3"}}