{"cas_no": "910487-58-0", "cn_name": "BAY 60-6583", "en_name": ["2-[[6-Amino-3,5-dicyano-4-[4-(cyclopropylmethoxy)phenyl]-2-pyridinyl]thio]acetamide", "Acetamide, 2-[[6-amino-3,5-dicyano-4-[4-(cyclopropylmethoxy)phenyl]-2-pyridinyl]thio]-", "2-[[6-Amino-3,5-dicyano-4-[4-(cyclopropylmethoxy)phenyl]-2-pyridinyl]thio]acetamide", "BAY 60-6583", "BR 4887", "2-[6-Amino-3,5-dicyano-4-(4-cyclopropylmethoxy-phenyl)-pyridin-2-ylsulfanyl]-acetamide", "2-[6-Amino-3,5-dicyano-4-[4-(cyclopropylmethoxy)phenyl]pyridin-2-yl]sulfanylacetamide"], "SMILES": "C(#N)C=1C(=C(C#N)C(N)=NC1SCC(N)=O)C2=CC=C(OCC3CC3)C=C2", "physical_data": {"Molecular Weight": "379.44", "Molecular Formula": "C19H17N5O2S", "Melting Point": "219-220 \u00b0C"}}