{"cas_no": "91085-56-2", "cn_name": "3,5-\u4e8c\u6c2f\u82ef\u7532\u9178\u4e59\u916f", "en_name": ["Benzoic acid, 3,5-dichloro-, ethyl ester", "Benzoic acid, 3,5-dichloro-, ethyl ester", "Ethyl 3,5-dichlorobenzoate", "3,5-Dichlorobenzoic acid ethyl ester"], "SMILES": "C(OCC)(=O)C1=CC(Cl)=CC(Cl)=C1", "physical_data": {"Molecular Weight": "219.06", "Molecular Formula": "C9H8Cl2O2", "Melting Point": "34-36 \u00b0C"}}