{"cas_no": "911-40-0", "cn_name": "7-\u916e\u57fa-3ALPHA,12ALPHA-\u4e8c\u7f9f\u57fa\u80c6\u70f7\u9178", "en_name": ["7-Ketodeoxycholic acid", "Cholan-24-oic acid, 3,12-dihydroxy-7-oxo-, (3\u03b1,5\u03b2,12\u03b1)-", "5\u03b2-Cholan-24-oic acid, 3\u03b1,12\u03b1-dihydroxy-7-oxo-", "5\u03b2-Cholanic acid, 3\u03b1,12\u03b1-dihydroxy-7-oxo-", "(3\u03b1,5\u03b2,12\u03b1)-3,12-Dihydroxy-7-oxocholan-24-oic acid", "3\u03b1,12\u03b1-Dihydroxy-7-oxo-5\u03b2-cholanoic acid", "3\u03b1,12\u03b1-Dihydroxy-7-ketocholanic acid", "3\u03b1,12\u03b1-Dihydroxy-7-oxo-5\u03b2-cholan-24-oic acid", "7-Ketodeoxycholic acid", "7-Oxo-3\u03b1,12\u03b1-dihydroxycholan-24-oic acid", "3\u03b1,12\u03b1-Dihydroxy-7-keto-5\u03b2-cholanic acid", "5\u03b2-Cholanic acid-3\u03b1,12\u03b1-diol-7-one", "7-keto-3\u03b1,12\u03b1-Dihydroxy-5\u03b2-cholanic acid", "7-Oxodeoxycholic acid", "7-Oxo-3\u03b1,12\u03b1-dihydroxy-5\u03b2-cholanoic acid", "7-keto-Deoxycholic acid"], "SMILES": "O=C1C2C3C(C)(C(C(CCC(O)=O)C)CC3)C(O)CC2C4(C)C(C1)CC(O)CC4", "physical_data": {"Molecular Weight": "406.56", "Molecular Formula": "C24H38O5", "Melting Point": "140-145 \u00b0C"}}