{"cas_no": "91161-71-6", "cn_name": "\u7279\u6bd4\u8418\u82ac", "en_name": ["Terbinafine", "1-Naphthalenemethanamine, N-[(2E)-6,6-dimethyl-2-hepten-4-yn-1-yl]-N-methyl-", "1-Naphthalenemethanamine, N-(6,6-dimethyl-2-hepten-4-ynyl)-N-methyl-, (E)-", "1-Naphthalenemethanamine, N-[(2E)-6,6-dimethyl-2-hepten-4-ynyl]-N-methyl-", "N-[(2E)-6,6-Dimethyl-2-hepten-4-yn-1-yl]-N-methyl-1-naphthalenemethanamine", "SF 86-327", "Terbinafine", "Daskil", "Lamasil", "Eksifine", "Mycoterbin", "Fungoterbin", "YY 1084", "Terbisil", "Terbinol", "TDT 067", "Tebina", "DA 5505"], "SMILES": "C(N(CC=CC#CC(C)(C)C)C)C=1C2=C(C=CC1)C=CC=C2", "physical_data": {"Molecular Weight": "291.43", "Molecular Formula": "C21H25N", "Melting Point": "203-205 \u00b0C"}}