{"cas_no": "911825-94-0", "cn_name": "2-\u6c1f-6-\u7898\u82c4\u9187", "en_name": ["2-Fluoro-6-iodobenzenemethanol", "Benzenemethanol, 2-fluoro-6-iodo-", "2-Fluoro-6-iodobenzenemethanol", "(2-Fluoro-6-iodophenyl)methanol", "2-Fluoro-6-iodobenzyl alcohol"], "SMILES": "C(O)C1=C(F)C=CC=C1I", "physical_data": {"Molecular Weight": "252.02", "Molecular Formula": "C7H6FIO", "Melting Point": "54-55 \u00b0C"}}