{"cas_no": "912-60-7", "cn_name": "\u90a3\u53ef\u4e01", "en_name": ["Noscapine hydrochloride", "1(3H)-Isobenzofuranone, 6,7-dimethoxy-3-[(5R)-5,6,7,8-tetrahydro-4-methoxy-6-methyl-1,3-dioxolo[4,5-g]isoquinolin-5-yl]-, hydrochloride (1:1), (3S)-", "Narcotine, hydrochloride", "1(3H)-Isobenzofuranone, 6,7-dimethoxy-3-(5,6,7,8-tetrahydro-4-methoxy-6-methyl-1,3-dioxolo[4,5-g]isoquinolin-5-yl)-, hydrochloride, [S-(R*,S*)]-", "1(3H)-Isobenzofuranone, 6,7-dimethoxy-3-[(5R)-5,6,7,8-tetrahydro-4-methoxy-6-methyl-1,3-dioxolo[4,5-g]isoquinolin-5-yl]-, hydrochloride, (3S)-", "1,3-Dioxolo[4,5-g]isoquinoline, 1(3H)-isobenzofuranone deriv.", "l-Narcotine hydrochloride", "Noscapine hydrochloride", "Opianine hydrochloride"], "SMILES": "O(C)C=1C=2C(N(C)CCC2C=C3C1OCO3)C4C=5C(C(=O)O4)=C(OC)C(OC)=CC5.Cl", "physical_data": {"Molecular Weight": "", "Molecular Formula": "C22H23NO7.ClH", "Melting Point": "190-191 \u00b0C"}}