{"cas_no": "912545-86-9", "cn_name": "SAG", "en_name": ["3-Chloro-N-[trans-4-(methylamino)cyclohexyl]-N-[[3-(4-pyridinyl)phenyl]methyl]benzo[b]thiophene-2-carboxamide", "Benzo[b]thiophene-2-carboxamide, 3-chloro-N-[trans-4-(methylamino)cyclohexyl]-N-[[3-(4-pyridinyl)phenyl]methyl]-", "3-Chloro-N-[trans-4-(methylamino)cyclohexyl]-N-[[3-(4-pyridinyl)phenyl]methyl]benzo[b]thiophene-2-carboxamide", "SAG", "SAG (cyclopamine antagonist)", "SAG (Smo agonist)", "Smoothened Agonist"], "SMILES": "N(C(=O)C1=C(Cl)C=2C(S1)=CC=CC2)(CC3=CC(=CC=C3)C=4C=CN=CC4)C5CCC(NC)CC5", "physical_data": {"Molecular Weight": "490.06", "Molecular Formula": "C28H28ClN3OS", "Melting Point": "109-111 \u00b0C"}}