{"cas_no": "912758-00-0", "cn_name": "ATB-337", "en_name": ["S-Diclofenac", "Benzeneacetic acid, 2-[(2,6-dichlorophenyl)amino]-, 4-(3-thioxo-3H-1,2-dithiol-5-yl)phenyl ester", "S-Diclofenac", "ACS 15", "ATB 337"], "SMILES": "N(C1=C(CC(OC2=CC=C(C=C2)C=3SSC(=S)C3)=O)C=CC=C1)C4=C(Cl)C=CC=C4Cl", "physical_data": {"Molecular Weight": "504.47", "Molecular Formula": "C23H15Cl2NO2S3", "Melting Point": "151-153 \u00b0C"}}