{"cas_no": "91296-87-6", "cn_name": "\u76d0\u9178\u6c99\u62c9\u6c99\u661f", "en_name": ["Sarafloxacin hydrochloride", "3-Quinolinecarboxylic acid, 6-fluoro-1-(4-fluorophenyl)-1,4-dihydro-4-oxo-7-(1-piperazinyl)-, hydrochloride (1:1)", "3-Quinolinecarboxylic acid, 6-fluoro-1-(4-fluorophenyl)-1,4-dihydro-4-oxo-7-(1-piperazinyl)-, monohydrochloride", "Sarafloxacin hydrochloride", "Sarafin"], "SMILES": "O=C1C=2C(N(C=C1C(O)=O)C3=CC=C(F)C=C3)=CC(=C(F)C2)N4CCNCC4.Cl", "physical_data": {"Molecular Weight": "", "Molecular Formula": "C20H17F2N3O3.ClH", "Melting Point": "&gt;275 \u00b0C"}}