{"cas_no": "912999-49-6", "cn_name": "AT-13387", "en_name": ["Onalespib", "Methanone, [1,3-dihydro-5-[(4-methyl-1-piperazinyl)methyl]-2H-isoindol-2-yl][2,4-dihydroxy-5-(1-methylethyl)phenyl]-", "1H-Isoindole, 2-[2,4-dihydroxy-5-(1-methylethyl)benzoyl]-2,3-dihydro-5-[(4-methyl-1-piperazinyl)methyl]-", "[1,3-Dihydro-5-[(4-methyl-1-piperazinyl)methyl]-2H-isoindol-2-yl][2,4-dihydroxy-5-(1-methylethyl)phenyl]methanone", "(2,4-Dihydroxy-5-isopropylphenyl)[5-[(4-methylpiperazin-1-yl)methyl]-1,3-dihydroisoindol-2-yl]methanone", "AT 13387", "AT 13387X", "Onalespib", "ATI 3387", "(2,4-Dihydroxy-5-propan-2-ylphenyl)-[5-[(4-methylpiperazin-1-yl)methyl]-1,3-dihydroisoindol-2-yl]methanone"], "SMILES": "C(=O)(N1CC=2C(C1)=CC(CN3CCN(C)CC3)=CC2)C4=CC(C(C)C)=C(O)C=C4O", "physical_data": {"Molecular Weight": "409.52", "Molecular Formula": "C24H31N3O3", "Melting Point": "93-94 \u00b0C"}}