{"cas_no": "91367-05-4", "cn_name": "4-\u6c2f-3-\u7532\u57fa\u82ef\u7532\u9178\u7532\u916f", "en_name": ["Benzoic acid, 4-chloro-3-methyl-, methyl ester", "Benzoic acid, 4-chloro-3-methyl-, methyl ester", "m-Toluic acid, 4-chloro-, methyl ester", "4-Chloro-3-methylbenzoic acid methyl ester", "Methyl 4-chloro-3-methylbenzoate"], "SMILES": "C(OC)(=O)C1=CC(C)=C(Cl)C=C1", "physical_data": {"Molecular Weight": "184.62", "Molecular Formula": "C9H9ClO2", "Melting Point": "76-78 \u00b0C"}}