{"cas_no": "913611-97-9", "cn_name": "\u4f9d\u5339\u54cc\u5511", "en_name": ["Brexpiprazole", "2(1H)-Quinolinone, 7-[4-(4-benzo[b]thien-4-yl-1-piperazinyl)butoxy]-", "7-[4-(4-Benzo[b]thien-4-yl-1-piperazinyl)butoxy]-2(1H)-quinolinone", "Brexpiprazole", "OPC 34712", "7-[4-(4-(Benzo[b]thien-4-yl)-piperazin-1-yl)butoxy]-1H-quinolin-2-one", "Rexulti", "Rxulti"], "SMILES": "C(CCCOC=1C=C2C(=CC1)C=CC(=O)N2)N3CCN(C4=C5C(SC=C5)=CC=C4)CC3", "physical_data": {"Molecular Weight": "433.57", "Molecular Formula": "C25H27N3O2S", "Melting Point": "181.7-183.4 \u00b0C"}}