{"cas_no": "91374-23-1", "cn_name": "N,N-\u4e8c\u4e19\u57fa-2-\u7532\u57fa-3-\u785d\u57fa\u82ef\u4e59\u80fa", "en_name": ["2-Methyl-3-nitro-N,N-dipropylbenzeneethanamine", "Benzeneethanamine, 2-methyl-3-nitro-N,N-dipropyl-", "2-Methyl-3-nitro-N,N-dipropylbenzeneethanamine", "N,N-Dipropyl-2-(2-methyl-3-nitrophenyl)ethylamine"], "SMILES": "C(CN(CCC)CCC)C1=C(C)C(N(=O)=O)=CC=C1", "physical_data": {"Molecular Weight": "264.36", "Molecular Formula": "C15H24N2O2", "Boiling Point": "115-120 \u00b0C @ Press: 0.1 Torr"}}