{"cas_no": "91374-20-8", "cn_name": "\u76d0\u9178\u7f57\u5339\u5c3c\u7f57", "en_name": ["Ropinirole hydrochloride", "2H-Indol-2-one, 4-[2-(dipropylamino)ethyl]-1,3-dihydro-, hydrochloride (1:1)", "2H-Indol-2-one, 4-[2-(dipropylamino)ethyl]-1,3-dihydro-, monohydrochloride", "SKF 101468 hydrochloride", "Ropinirole hydrochloride", "SKF 101468A", "Requip", "Parkirop", "Ropitar", "Ropark", "Repreve", "Ronirol", "Adartrel", "Spiroco XL", "Ralnea XL", "Clevor"], "SMILES": "C(CN(CCC)CCC)C1=C2C(NC(=O)C2)=CC=C1.Cl", "physical_data": {"Molecular Weight": "", "Molecular Formula": "C16H24N2O.ClH", "Melting Point": "241-243 \u00b0C"}}