{"cas_no": "913835-73-1", "cn_name": "3-\u6eb4-5-\u7fa7\u57fa\u82ef\u57fa\u787c\u9178", "en_name": ["3-Borono-5-bromobenzoic acid", "Benzoic acid, 3-borono-5-bromo-", "3-Borono-5-bromobenzoic acid", "3-Bromo-5-carboxyphenylboronic acid", "3-Bromo-5-(dihydroxyboranyl)benzoic acid"], "SMILES": "B(O)(O)C1=CC(C(O)=O)=CC(Br)=C1", "physical_data": {"Molecular Weight": "244.84", "Molecular Formula": "C7H6BBrO4", "Melting Point": "260-263 \u00b0C"}}