{"cas_no": "913836-26-7", "cn_name": "4-\u6c2f-3-\u785d\u57fa\u82ef\u57fa\u787c\u9178\u9891\u54ea\u9187\u916f", "en_name": ["2-(4-Chloro-3-nitrophenyl)-4,4,5,5-tetramethyl-1,3,2-dioxaborolane", "1,3,2-Dioxaborolane, 2-(4-chloro-3-nitrophenyl)-4,4,5,5-tetramethyl-", "2-(4-Chloro-3-nitrophenyl)-4,4,5,5-tetramethyl-1,3,2-dioxaborolane"], "SMILES": "CC1(C)OB(OC1(C)C)C2=CC(N(=O)=O)=C(Cl)C=C2", "physical_data": {"Molecular Weight": "283.52", "Molecular Formula": "C12H15BClNO4", "Melting Point": "39-41 \u00b0C"}}