{"cas_no": "914-00-1", "cn_name": "\u7532\u70ef\u571f\u9709\u7d20", "en_name": ["Methacycline", "2-Naphthacenecarboxamide, 4-(dimethylamino)-1,4,4a,5,5a,6,11,12a-octahydro-3,5,10,12,12a-pentahydroxy-6-methylene-1,11-dioxo-, (4S,4aR,5S,5aR,12aS)-", "2-Naphthacenecarboxamide, 4-(dimethylamino)-1,4,4a,5,5a,6,11,12a-octahydro-3,5,10,12,12a-pentahydroxy-6-methylene-1,11-dioxo-", "2-Naphthacenecarboxamide, 4-(dimethylamino)-1,4,4a,5,5a,6,11,12a-octahydro-3,5,10,12,12a-pentahydroxy-6-methylene-1,11-dioxo-, [4S-(4\u03b1,4a\u03b1,5\u03b1,5a\u03b1,12a\u03b1)]-", "(4S,4aR,5S,5aR,12aS)-4-(Dimethylamino)-1,4,4a,5,5a,6,11,12a-octahydro-3,5,10,12,12a-pentahydroxy-6-methylene-1,11-dioxo-2-naphthacenecarboxamide", "4-Dimethylamino-1,4,4a,5,5a,6,11,12a-octahydro-3,5,10,12,12a-pentahydroxy-6-methylene-1,11-dioxo-2-naphthacenecarboxamide", "Metacycline", "Methacycline", "6-Methyleneoxytetracycline", "Rondomycin", "6-Methylene-5-hydroxytetracycline", "Oxytetracycline, 6-methylene-", "6-Deoxy-6-methylene-6-demethyl-5-hydroxytetracycline", "Bialatan", "6-Demethyl-6-deoxy-5-hydroxy-6-methylenetetracycline", "Tri-methacycline", "GS 2876", "MeSH ID: D008690"], "SMILES": "OC12C(C(N(C)C)C(O)=C(C(N)=O)C1=O)C(O)C3C(=C2O)C(=O)C=4C(C3=C)=CC=CC4O", "physical_data": {"Molecular Weight": "442.42", "Molecular Formula": "C22H22N2O8", "Melting Point": "205 \u00b0C (decomp)"}}