{"cas_no": "91424-40-7", "cn_name": "3-\u53d4\u4e01\u57fa\u4e8c\u7532\u7845\u6c27\u57fa\u620a\u4e8c\u9178\u9150", "en_name": ["4-[[(1,1-Dimethylethyl)dimethylsilyl]oxy]dihydro-2H-pyran-2,6(3H)-dione", "2H-Pyran-2,6(3H)-dione, 4-[[(1,1-dimethylethyl)dimethylsilyl]oxy]dihydro-", "4-[[(1,1-Dimethylethyl)dimethylsilyl]oxy]dihydro-2H-pyran-2,6(3H)-dione", "3-[(tert-Butyldimethylsilyl)oxy]glutaric anhydride"], "SMILES": "O([Si](C(C)(C)C)(C)C)C1CC(=O)OC(=O)C1", "physical_data": {"Molecular Weight": "244.36", "Molecular Formula": "C11H20O4Si", "Melting Point": "80-81 \u00b0C"}}