{"cas_no": "91421-42-0", "cn_name": "\u9c81\u6bd4\u7279\u5eb7", "en_name": ["9-Nitrocamptothecin", "1H-Pyrano[3\u2032,4\u2032:6,7]indolizino[1,2-b]quinoline-3,14(4H,12H)-dione, 4-ethyl-4-hydroxy-10-nitro-, (4S)-", "1H-Pyrano[3\u2032,4\u2032:6,7]indolizino[1,2-b]quinoline-3,14(4H,12H)-dione, 4-ethyl-4-hydroxy-10-nitro-, (S)-", "(4S)-4-Ethyl-4-hydroxy-10-nitro-1H-pyrano[3\u2032,4\u2032:6,7]indolizino[1,2-b]quinoline-3,14(4H,12H)-dione", "9-Nitrocamptothecin", "9-Nitro-20(S)-camptothecin", "RFS 2000", "Rubitecan", "Orathecin"], "SMILES": "O=C1N2C(C=3C(C2)=CC=4C(N3)=CC=CC4N(=O)=O)=CC5=C1COC(=O)C5(CC)O", "physical_data": {"Molecular Weight": "393.35", "Molecular Formula": "C20H15N3O6", "Melting Point": "182-186 \u00b0C"}}