{"cas_no": "91421-43-1", "cn_name": "9-\u6c28\u57fa\u559c\u6811\u78b1", "en_name": ["9-Aminocamptothecin", "1H-Pyrano[3\u2032,4\u2032:6,7]indolizino[1,2-b]quinoline-3,14(4H,12H)-dione, 10-amino-4-ethyl-4-hydroxy-, (4S)-", "1H-Pyrano[3\u2032,4\u2032:6,7]indolizino[1,2-b]quinoline-3,14(4H,12H)-dione, 10-amino-4-ethyl-4-hydroxy-, (S)-", "(4S)-10-Amino-4-ethyl-4-hydroxy-1H-pyrano[3\u2032,4\u2032:6,7]indolizino[1,2-b]quinoline-3,14(4H,12H)-dione", "9-Aminocamptothecin", "NSC 603071", "9-Amino-20(S)-camptothecin", "(S)-10-Amino-4-ethyl-4-hydroxy-1H-pyrano[3\u2032,4\u2032:6,7]indolizino[1,2-b]quinoline-3,14(4H,12H)-dione"], "SMILES": "C(C)C1(O)C2=C(C(=O)N3C(=C2)C=4C(C3)=CC=5C(N4)=CC=CC5N)COC1=O", "physical_data": {"Molecular Weight": "363.37", "Molecular Formula": "C20H17N3O4", "Melting Point": "142.0-145.0 \u00b0C"}}