{"cas_no": "91465-08-6", "cn_name": "\u9ad8\u6548\u6c2f\u6c1f\u6c30\u83ca\u916f", "en_name": ["\u03bb-Cyhalothrin", "Cyclopropanecarboxylic acid, 3-[(1Z)-2-chloro-3,3,3-trifluoro-1-propen-1-yl]-2,2-dimethyl-, (R)-cyano(3-phenoxyphenyl)methyl ester, (1S,3S)-rel-", "Cyclopropanecarboxylic acid, 3-(2-chloro-3,3,3-trifluoro-1-propenyl)-2,2-dimethyl-, cyano(3-phenoxyphenyl)methyl ester, [1\u03b1(S*),3\u03b1(Z)]-(\u00b1)-", "Cyclopropanecarboxylic acid, 3-[(1Z)-2-chloro-3,3,3-trifluoro-1-propenyl]-2,2-dimethyl-, (R)-cyano(3-phenoxyphenyl)methyl ester, (1S,3S)-rel-", "Karate", "PP 321", "lambda-Cyhalothrin", "Cyhalothrin K", "Icon", "Karate 1E", "ICI-A 0321", "\u03bb-Cyhalothrin", "Cyclopropanecarboxylic acid, 3-[(1Z)-2-chloro-3,3,3-trifluoro-1-propenyl]-2,2-dimethyl-, (1R)-cyano(3-phenoxyphenyl)methyl ester, (1S,3S)-", "Karate Z", "Hallmark", "Karate King", "Karate Zeon", "Kung Fu", "Warrior", "Matador", "Matador (insecticide)", "Scimitar", "Demand", "Warrior T", "Spectracide Trazicide", "Spectracide Triazicide Soil &", "Turf Insect Killer", "Warrior Zeon", "Taiga Z", "Karate K", "NUP 05077", "Lamdex", "Warrior II", "A 12871A", "Demand Pestab", "ICON Maxx", "REEVA 5", "Karate Zeon 050CS", "Karate Zeon 100CS", "Grenade ER", "Molniya", "Karate 2.5EC", "Ambush Super", "\u03bb-Cialotrina", "Lamtox", "Cyonara"], "SMILES": "C(=C(C(F)(F)F)Cl)C1C(C(OC(C#N)C2=CC(OC3=CC=CC=C3)=CC=C2)=O)C1(C)C", "physical_data": {"Molecular Weight": "449.85", "Molecular Formula": "C23H19ClF3NO3", "Melting Point": "49.2 \u00b0C", "Density": "1.3 g/cm\u00b3"}}