{"cas_no": "91476-82-3", "cn_name": "5,6,7,8-\u56db\u6c22\u54aa\u5511[1,2-A]\u5421\u55ea-2-\u7fa7\u9178\u4e59\u916f", "en_name": ["Imidazo[1,2-a]pyrazine-2-carboxylic acid, 5,6,7,8-tetrahydro-, ethyl ester", "Imidazo[1,2-a]pyrazine-2-carboxylic acid, 5,6,7,8-tetrahydro-, ethyl ester", "Ethyl 5,6,7,8-tetrahydroimidazo[1,2-a]pyrazine-2-carboxylate", "5,6,7,8-Tetrahydroimidazo[1,2-a]pyrazine-2-carboxylic acid ethyl ester", "5,6,7,8-Tetrahydroimidazo[1,2-\u3008a]pyrazine-2-carboxylic acid ethyl ester"], "SMILES": "C(OCC)(=O)C=1N=C2N(C1)CCNC2", "physical_data": {"Molecular Weight": "195.22", "Molecular Formula": "C9H13N3O2", "Melting Point": "62-65 \u00b0C"}}