{"cas_no": "914913-88-5", "cn_name": "PALOMID 529 (P529)", "en_name": ["Palomid 529", "6H-Dibenzo[b,d]pyran-6-one, 8-(1-hydroxyethyl)-2-methoxy-3-[(4-methoxyphenyl)methoxy]-", "8-(1-Hydroxyethyl)-2-methoxy-3-[(4-methoxyphenyl)methoxy]-6H-dibenzo[b,d]pyran-6-one", "SG 00529", "Palomid 529", "P 529", "8-(1-hydroxyethyl)-2-methoxy-3-(4-methoxybenzyloxy)-benzo[c]chromen-6-one", "DFN 529", "RES 529"], "SMILES": "O(C)C=1C=C2C=3C(C(=O)OC2=CC1OCC4=CC=C(OC)C=C4)=CC(C(C)O)=CC3", "physical_data": {"Molecular Weight": "406.43", "Molecular Formula": "C24H22O6", "Melting Point": "193-194 \u00b0C"}}