{"cas_no": "915-05-9", "cn_name": "\u0392-\u8c37\u753e\u9187\u4e59\u9178\u916f", "en_name": ["\u03b2-Sitosterol acetate", "Stigmast-5-en-3-ol, 3-acetate, (3\u03b2)-", "Stigmast-5-en-3\u03b2-ol, acetate", "\u03b2-Sitosterol acetate", "Stigmast-5-en-3-ol, acetate, (3\u03b2)-", "3\u03b2-Acetoxystigmast-5-ene", "\u03b2-Sitosteryl acetate", "\u03b2-Sitosterol 3-acetate", "Sitosteryl acetate", "Stigmast-5-en-3\u03b2-yl acetate", "Acetyl-\u03b2-sitosterol", "O-Acetyl-\u03b2-sitosterol", "Sitosterol acetate", "Stigmast-5-ene-3\u03b2-ol acetate", "NSC 11922"], "SMILES": "CC12C3C(C4C(C)(CC3)C(C(CCC(C(C)C)CC)C)CC4)CC=C1CC(OC(C)=O)CC2", "physical_data": {"Molecular Weight": "456.74", "Molecular Formula": "C31H52O2", "Melting Point": "125.6-137 \u00b0C"}}