{"cas_no": "915-35-5", "cn_name": "\u9f99\u820c\u5170\u7682\u82f7\u4e59\u916f", "en_name": ["Hecogenin acetate", "Spirostan-12-one, 3-(acetyloxy)-, (3\u03b2,5\u03b1,25R)-", "5\u03b1-Spirostan-12-one, 3\u03b2-hydroxy-, acetate, (25R)-", "5\u03b1,25D-Spirostan-12-one, 3\u03b2-hydroxy-, acetate", "Spiro[8H-naphth[2\u2032,1\u2032:4,5]indeno[2,1-b]furan-8,2\u2032-[2H]pyran], spirostan-12-one deriv.", "(3\u03b2,5\u03b1,25R)-3-(Acetyloxy)spirostan-12-one", "Hecogenin acetate", "3\u03b2-Acetoxy-5\u03b1-spirostan-12-one", "NSC 15489"], "SMILES": "CC12C3C(OC4(C3C)CCC(C)CO4)CC1C5C(CC2=O)C6(C)C(CC5)CC(OC(C)=O)CC6", "physical_data": {"Molecular Weight": "472.66", "Molecular Formula": "C29H44O5", "Melting Point": "246-248 \u00b0C"}}