{"cas_no": "915-76-4", "cn_name": "2,4,6-\u4e09(\u4e03\u6c1f\u4e19\u57fa)-1,3,5-\u4e09\u55ea, MASS SPEC STD.", "en_name": ["2,4,6-Tris(1,1,2,2,3,3,3-heptafluoropropyl)-1,3,5-triazine", "1,3,5-Triazine, 2,4,6-tris(1,1,2,2,3,3,3-heptafluoropropyl)-", "s-Triazine, 2,4,6-tris(heptafluoropropyl)-", "1,3,5-Triazine, 2,4,6-tris(heptafluoropropyl)-", "2,4,6-Tris(1,1,2,2,3,3,3-heptafluoropropyl)-1,3,5-triazine", "NSC 71020", "2,4,6-Tris(heptafluoropropyl)-1,3,5-triazine"], "SMILES": "C(C(F)(F)C=1N=C(C(C(C(F)(F)F)(F)F)(F)F)N=C(C(C(C(F)(F)F)(F)F)(F)F)N1)(C(F)(F)F)(F)F", "physical_data": {"Molecular Weight": "585.11", "Molecular Formula": "C12F21N3", "Boiling Point": "164.5-165.0 \u00b0C", "Melting Point": "35 \u00b0C", "Density": "1.716 g/cm\u00b3 @ Temp: 25 \u00b0C"}}