{"cas_no": "915095-94-2", "cn_name": "(3S)-3-[4-[(2-\u6c2f-5-\u7898\u82ef\u57fa)\u7532\u57fa]\u82ef\u6c27\u57fa]\u56db\u6c22\u544b\u5583", "en_name": ["(3S)-3-[4-[(2-Chloro-5-iodophenyl)methyl]phenoxy]tetrahydrofuran", "Furan, 3-[4-[(2-chloro-5-iodophenyl)methyl]phenoxy]tetrahydro-, (3S)-", "(3S)-3-[4-[(2-Chloro-5-iodophenyl)methyl]phenoxy]tetrahydrofuran", "(S)-3-(4-(2-Chloro-5-iodobenzyl)phenoxy)tetrahydrofuran", "(3S)-3-[4-[(2-Chloro-5-iodophenyl)methyl]phenoxy]oxolane"], "SMILES": "C(C1=C(Cl)C=CC(I)=C1)C2=CC=C(OC3CCOC3)C=C2", "physical_data": {"Molecular Weight": "414.67", "Molecular Formula": "C17H16ClIO2", "Melting Point": "60-62 \u00b0C"}}