{"cas_no": "915087-33-1", "cn_name": "\u6069\u6742\u9c81\u80fa", "en_name": ["Enzalutamide", "Benzamide, 4-[3-[4-cyano-3-(trifluoromethyl)phenyl]-5,5-dimethyl-4-oxo-2-thioxo-1-imidazolidinyl]-2-fluoro-N-methyl-", "4-[3-[4-Cyano-3-(trifluoromethyl)phenyl]-5,5-dimethyl-4-oxo-2-thioxo-1-imidazolidinyl]-2-fluoro-N-methylbenzamide", "MDV 3100", "Enzalutamide", "Xtandi", "S-Enzalutamide"], "SMILES": "S=C1N(C(C)(C)C(=O)N1C2=CC(C(F)(F)F)=C(C#N)C=C2)C3=CC(F)=C(C(NC)=O)C=C3", "physical_data": {"Molecular Weight": "464.44", "Molecular Formula": "C21H16F4N4O2S", "Melting Point": "198.2-199.1 \u00b0C"}}