{"cas_no": "91503-79-6", "cn_name": "\u6c1f\u6bd4\u6d1b\u82ac\u916f", "en_name": ["Flurbiprofen axetil", "[1,1\u2032-Biphenyl]-4-acetic acid, 2-fluoro-\u03b1-methyl-, 1-(acetyloxy)ethyl ester", "Flurbiprofen axetil", "LFP 83", "1-Acetoxyethyl 2-(2-fluoro-4-biphenylyl)propionate", "Ropiopn", "1-Acetoxyethyl 2-(2-fluoro-[1,1\u2032-biphenyl]-4-yl)propanoate"], "SMILES": "FC1=C(C=CC(C(C(OC(OC(C)=O)C)=O)C)=C1)C2=CC=CC=C2", "physical_data": {"Molecular Weight": "330.35", "Molecular Formula": "C19H19FO4", "Boiling Point": "174 \u00b0C @ Press: 0.8 Torr"}}