{"cas_no": "915095-86-2", "cn_name": "(2-\u6c2f-5-\u7898\u82ef\u57fa)(4-\u6c1f\u82ef\u57fa)\u7532\u916e", "en_name": ["(2-Chloro-5-iodophenyl)(4-fluorophenyl)methanone", "Methanone, (2-chloro-5-iodophenyl)(4-fluorophenyl)-", "(2-Chloro-5-iodophenyl)(4-fluorophenyl)methanone"], "SMILES": "C(=O)(C1=C(Cl)C=CC(I)=C1)C2=CC=C(F)C=C2", "physical_data": {"Molecular Weight": "360.55", "Molecular Formula": "C13H7ClFIO", "Melting Point": "69-70 \u00b0C"}}