{"cas_no": "915095-87-3", "cn_name": "(2-\u6c2f-5-\u7898\u82ef\u57fa)[4-[[(3S)-\u56db\u6c22-3-\u544b\u5583\u57fa]\u6c27\u57fa]\u82ef\u57fa]\u7532\u916e", "en_name": ["(2-Chloro-5-iodophenyl)[4-[[(3S)-tetrahydro-3-furanyl]oxy]phenyl]methanone", "Methanone, (2-chloro-5-iodophenyl)[4-[[(3S)-tetrahydro-3-furanyl]oxy]phenyl]-", "(2-Chloro-5-iodophenyl)[4-[[(3S)-tetrahydro-3-furanyl]oxy]phenyl]methanone", "(2-Chloro-5-iodophenyl)-[4-[(3S)-oxolan-3-yl]oxyphenyl]methanone", "(S)-(2-Chloro-5-iodophenyl)(4-((tetrahydrofuran-3-yl)oxy)phenyl)methanone"], "SMILES": "C(=O)(C1=C(Cl)C=CC(I)=C1)C2=CC=C(OC3CCOC3)C=C2", "physical_data": {"Molecular Weight": "428.65", "Molecular Formula": "C17H14ClIO3", "Melting Point": "110-111 \u00b0C"}}