{"cas_no": "91599-74-5", "cn_name": "\u76d0\u9178\u8d1d\u5c3c\u5730\u5e73", "en_name": ["Benidipine hydrochloride", "3,5-Pyridinedicarboxylic acid, 1,4-dihydro-2,6-dimethyl-4-(3-nitrophenyl)-, 3-methyl 5-[(3R)-1-(phenylmethyl)-3-piperidinyl] ester, hydrochloride (1:1), (4R)-rel-", "3,5-Pyridinedicarboxylic acid, 1,4-dihydro-2,6-dimethyl-4-(3-nitrophenyl)-, methyl 1-(phenylmethyl)-3-piperidinyl ester, monohydrochloride, (R*,R*)-(\u00b1)-", "3,5-Pyridinedicarboxylic acid, 1,4-dihydro-2,6-dimethyl-4-(3-nitrophenyl)-, methyl (3R)-1-(phenylmethyl)-3-piperidinyl ester, monohydrochloride, (4R)-rel-", "Benidipine hydrochloride", "(\u00b1)-Benidipine hydrochloride", "KW 3049", "Coniel"], "SMILES": "C(OC1CN(CC2=CC=CC=C2)CCC1)(=O)C=3C(C(C(OC)=O)=C(C)NC3C)C4=CC(N(=O)=O)=CC=C4.Cl", "physical_data": {"Molecular Weight": "", "Molecular Formula": "C28H31N3O6.ClH", "Melting Point": "199.4-200.4 \u00b0C"}}