{"cas_no": "91591-63-8", "cn_name": "2,5-\u4e8c\u6c2f-4,6-\u4e8c\u7532\u57fa\u70df\u8148", "en_name": ["2,5-Dichloro-4,6-dimethyl-3-pyridinecarbonitrile", "3-Pyridinecarbonitrile, 2,5-dichloro-4,6-dimethyl-", "2,5-Dichloro-4,6-dimethyl-3-pyridinecarbonitrile", "NSC 341973", "2,5-Dichloro-4,6-dimethylnicotinonitrile", "2,5-Dichloro-3-cyano-4,6-dimethylpyridine"], "SMILES": "C(#N)C=1C(C)=C(Cl)C(C)=NC1Cl", "physical_data": {"Molecular Weight": "201.05", "Molecular Formula": "C8H6Cl2N2", "Melting Point": "67-68 \u00b0C"}}