{"cas_no": "916420-28-5", "cn_name": "2H-3-\u6c28\u57fa\u5421\u5511", "en_name": ["1H-Pyrazol-3-amine", "1H-Pyrazol-3-amine", "Pyrazole, 3-amino-", "Pyrazole, 3(or 5)-amino-", "3-Aminopyrazole", "5-Aminopyrazole", "3(5)-Aminopyrazole", "5-Pyrazolamine", "1H-Pyrazol-5-amine", "3-Amino-1H-pyrazole", "(5-1H-Pyrazolyl)amine", "1H-Pyrazol-3-ylamine", "NSC 76122", "1H-Pyrazole-3-amine", "3-AP", "3-Amino-2H-pyrazole", "2H-Pyrazol-3-ylamine"], "SMILES": "NC=1C=CNN1", "physical_data": {"Molecular Weight": "83.09", "Molecular Formula": "C3H5N3", "Boiling Point": "146-148 \u00b0C @ Press: 11 Torr", "Melting Point": "36-38 \u00b0C"}}