{"cas_no": "91674-26-9", "cn_name": "D-\u6c28\u57fa\u8461\u8404\u7cd6-6-\u786b\u9178\u76d0", "en_name": ["Glucosamine 6-sulfate", "D-Glucose, 2-amino-2-deoxy-, 6-(hydrogen sulfate)", "D-Glucose, 2-amino-2-deoxy-, 6-sulfate", "Glucosamine 6-sulfate", "D-Glucosamine-6-sulfate"], "SMILES": "C(C(C(C=O)N)O)(C(COS(=O)(=O)O)O)O", "physical_data": {"Molecular Weight": "259.23", "Molecular Formula": "C6H13NO8S", "Melting Point": "160-162 \u00b0C"}}