{"cas_no": "917-92-0", "cn_name": "3,3-\u4e8c\u7532\u57fa-1-\u4e01\u7094", "en_name": ["3,3-Dimethyl-1-butyne", "1-Butyne, 3,3-dimethyl-", "3,3-Dimethyl-1-butyne", "3,3,3-Trimethylpropyne", "tert-Butylacetylene", "3,3-Dimethylbutyne", "Neohexyne", "tert-Butylethyne", "3,3-Dimethylbut-1-yne", "2,2-Dimethyl-3-butyne"], "SMILES": "C(C#C)(C)(C)C", "physical_data": {"Molecular Weight": "82.14", "Molecular Formula": "C6H10", "Boiling Point": "37.7 \u00b0C", "Melting Point": "-78.2 \u00b0C", "Density": "0.6683 g/cm\u00b3 @ Temp: 20 \u00b0C"}}