{"cas_no": "917-23-7", "cn_name": "\u56db\u82ef\u57fa\u535f\u5549", "en_name": ["Tetraphenylporphyrin", "21H,23H-Porphine, 5,10,15,20-tetraphenyl-", "Porphine, 5,10,15,20-tetraphenyl-", "Porphine, \u03b1,\u03b2,\u03b3,\u03b4-tetraphenyl-", "5,10,15,20-Tetraphenyl-21H,23H-porphine", "\u03b1,\u03b2,\u03b3,\u03b4-Tetraphenylporphine", "meso-Tetraphenylporphine", "Tetraphenylporphyrin", "Tetraphenylporphine", "meso-Tetraphenylporphyrin", "5,10,15,20-Tetraphenylporphine", "5,10,15,20-Tetraphenylporphyrin", "TPP", "TPP (chelating agent)", "5,10,15,20-Tetraphenyl-21H,23H-porphyrin", "NSC 18506", "NSC 640184", "5,10,15,20-Tetraphenyl-22H,24H-prophyrin", "5,10,15,20-Tetraphenyl-21H,23H-porphrin", "A 5012"], "SMILES": "C=1(C=2NC(=CC2)C(=C3N=C(C=C3)C(=C4NC(=C(C5=NC1C=C5)C6=CC=CC=C6)C=C4)C7=CC=CC=C7)C8=CC=CC=C8)C9=CC=CC=C9", "physical_data": {"Molecular Weight": "614.74", "Molecular Formula": "C44H30N4", "Melting Point": "444 \u00b0C", "Density": "1.64 g/cm\u00b3"}}