{"cas_no": "917-61-3", "cn_name": "\u6c30\u9178\u94a0", "en_name": ["Sodium cyanate", "Cyanic acid, sodium salt (1:1)", "Sodium cyanate", "Cyanic acid, sodium salt", "Zassol", "Sodium cyanate (NaOCN)", "Sodium isocyanate", "Sodium cyanate (NaNCO)", "Sodium, (cyanato-\u03baN)-"], "SMILES": "C(#N)O.[Na]", "physical_data": {"Molecular Weight": "", "Molecular Formula": "CHNO.Na", "Melting Point": "550 \u00b0C", "Density": "1.893 g/cm\u00b3 @ Temp: 204 \u00b0C"}}