{"cas_no": "917-54-4", "cn_name": "\u7532\u57fa\u9502", "en_name": ["Methyllithium", "Lithium, methyl-", "Methyllithium", "Lithium methide"], "SMILES": "C[Li]", "physical_data": {"Molecular Weight": "", "Molecular Formula": "CH3Li", "Melting Point": "70-71 \u00b0C"}}