{"cas_no": "91714-93-1", "cn_name": "\u6eb4\u82ac\u9178\u94a0", "en_name": ["Bromfenac sodium", "Benzeneacetic acid, 2-amino-3-(4-bromobenzoyl)-, sodium salt (1:1)", "Benzeneacetic acid, 2-amino-3-(4-bromobenzoyl)-, monosodium salt", "Bromfenac sodium", "AHR 10282B", "Bronuck"], "SMILES": "C(=O)(C1=C(N)C(CC(O)=O)=CC=C1)C2=CC=C(Br)C=C2.[Na]", "physical_data": {"Molecular Weight": "", "Molecular Formula": "C15H12BrNO3.Na", "Melting Point": "285 \u00b0C"}}