{"cas_no": "917393-39-6", "cn_name": "LOREDIPLON", "en_name": ["Lorediplon", "Acetamide, N-[2-fluoro-5-[3-(2-thienylcarbonyl)pyrazolo[1,5-a]pyrimidin-7-yl]phenyl]-N-methyl-", "N-[2-Fluoro-5-[3-(2-thienylcarbonyl)pyrazolo[1,5-a]pyrimidin-7-yl]phenyl]-N-methylacetamide", "Lorediplon"], "SMILES": "C(=O)(C1=C2N(C(=CC=N2)C3=CC(N(C(C)=O)C)=C(F)C=C3)N=C1)C4=CC=CS4", "physical_data": {"Molecular Weight": "394.42", "Molecular Formula": "C20H15FN4O2S", "Melting Point": "158-159 \u00b0C"}}