{"cas_no": "917342-29-1", "cn_name": "\u53cd\u5f0f-1-(BOC-\u6c28\u57fa)-4-(2-\u7f9f\u4e59\u57fa)\u73af\u5df1\u70f7", "en_name": ["1,1-Dimethylethyl N-[trans-4-(2-hydroxyethyl)cyclohexyl]carbamate", "Carbamic acid, N-[trans-4-(2-hydroxyethyl)cyclohexyl]-, 1,1-dimethylethyl ester", "1,1-Dimethylethyl N-[trans-4-(2-hydroxyethyl)cyclohexyl]carbamate", "tert-Butyl [trans-4-(2-hydroxyethyl)cyclohexyl]carbamate", "trans-2-[4-[(tert-Butoxycarbonyl)amino]cyclohexyl]ethanol", "2-[trans-4-[(N-tert-Butoxycarbonyl)amino]cyclohexyl]ethanol"], "SMILES": "N(C(OC(C)(C)C)=O)C1CCC(CCO)CC1", "physical_data": {"Molecular Weight": "243.34", "Molecular Formula": "C13H25NO3", "Melting Point": "101-103 \u00b0C"}}