{"cas_no": "917392-54-2", "cn_name": "4-\u7532\u57fa-3-[[4-(3-\u5421\u5576\u57fa)-2-\u5627\u5576\u57fa]\u6c28\u57fa]\u82ef\u7532\u9178\u7532\u916f", "en_name": ["Benzoic acid, 4-methyl-3-[[4-(3-pyridinyl)-2-pyrimidinyl]amino]-, methyl ester", "Benzoic acid, 4-methyl-3-[[4-(3-pyridinyl)-2-pyrimidinyl]amino]-, methyl ester", "Methyl 4-methyl-3-[[4-(pyridin-3-yl)pyrimidin-2-yl]amino]benzoate"], "SMILES": "N(C=1N=C(C=CN1)C=2C=CC=NC2)C3=CC(C(OC)=O)=CC=C3C", "physical_data": {"Molecular Weight": "320.35", "Molecular Formula": "C18H16N4O2", "Melting Point": "117 \u00b0C"}}