{"cas_no": "918-21-8", "cn_name": "\u516d\u6c1f-2,3-\u53cc(\u4e09\u6c1f\u7532\u57fa)-2,3-\u4e8c\u9187", "en_name": ["1,1,1,4,4,4-Hexafluoro-2,3-bis(trifluoromethyl)-2,3-butanediol", "2,3-Butanediol, 1,1,1,4,4,4-hexafluoro-2,3-bis(trifluoromethyl)-", "1,1,1,4,4,4-Hexafluoro-2,3-bis(trifluoromethyl)-2,3-butanediol", "Perfluoropinacol", "Perfluoropinacone", "Dodecafluoropinacol", "1,1,2,2-Tetra(trifluoromethyl)ethane-1,2-diol", "Hexafluoro-2,3-bis(trifluoromethyl)-2,3-butanediol"], "SMILES": "C(C(C(F)(F)F)(C(F)(F)F)O)(C(F)(F)F)(C(F)(F)F)O", "physical_data": {"Molecular Weight": "334.06", "Molecular Formula": "C6H2F12O2", "Boiling Point": "129 \u00b0C", "Melting Point": "26 \u00b0C"}}