{"cas_no": "918-05-8", "cn_name": "N,N-\u4e8c\u7532\u57fa\u7532\u78fa\u9170\u80fa", "en_name": ["N,N-Dimethylmethanesulfonamide", "Methanesulfonamide, N,N-dimethyl-", "N,N-Dimethylmethanesulfonamide", "NSC 66043"], "SMILES": "S(N(C)C)(C)(=O)=O", "physical_data": {"Molecular Weight": "123.17", "Molecular Formula": "C3H9NO2S", "Boiling Point": "103 \u00b0C @ Press: 8 Torr", "Melting Point": "50-51 \u00b0C"}}