{"cas_no": "918-00-3", "cn_name": "1,1,1-\u4e09\u6c2f\u4e19\u916e", "en_name": ["1,1,1-Trichloropropanone", "2-Propanone, 1,1,1-trichloro-", "1,1,1-Trichloro-2-propanone", "\u03b1,\u03b1,\u03b1-Trichloroacetone", "1,1,1-Trichloroacetone", "1,1,1-Trichloropropanone", "Trichloromethyl methyl ketone", "NSC 2645"], "SMILES": "C(C(C)=O)(Cl)(Cl)Cl", "physical_data": {"Molecular Weight": "161.41", "Molecular Formula": "C3H3Cl3O", "Boiling Point": "149 \u00b0C", "Density": "1.4389 g/cm\u00b3 @ Temp: 17.1 \u00b0C"}}