{"cas_no": "918-02-5", "cn_name": "\u53d4\u4e01\u57fa\u4e8c\u7532\u57fa\u80fa", "en_name": ["N,N,2-Trimethyl-2-propanamine", "2-Propanamine, N,N,2-trimethyl-", "Ethylamine, N,N,1,1-tetramethyl-", "N,N,2-Trimethyl-2-propanamine", "Dimethyl-tert-butylamine", "N,N-Dimethyl-tert-butylamine", "tert-Butyldimethylamine"], "SMILES": "C(N(C)C)(C)(C)C", "physical_data": {"Molecular Weight": "101.19", "Molecular Formula": "C6H15N", "Boiling Point": "102-103 \u00b0C", "Melting Point": "282-283 \u00b0C (decomp)", "Density": "0.735 g/cm\u00b3 @ Temp: 25 \u00b0C"}}