{"cas_no": "918-20-7", "cn_name": "\u53d4\u4e01\u57fa\u6c2f-D9", "en_name": ["Propane-1,1,1,3,3,3-d6, 2-chloro-2-(methyl-d3)-", "Propane-1,1,1,3,3,3-d6, 2-chloro-2-(methyl-d3)-", "2-Chloro-2-methylpropane-d9", "tert-Butyl-d9 chloride", "2-Chloro-1,1,1,3,3,3-hexadeuterio-2-(trideuteriomethyl)propane"], "SMILES": "C(C([2H])([2H])[2H])(C)(C)Cl", "physical_data": {"Molecular Weight": "", "Molecular Formula": "C4ClD9", "Boiling Point": "50 \u00b0C"}}