{"cas_no": "918-85-4", "cn_name": "3-\u7532\u57fa-1-\u620a\u70ef-3-\u9187", "en_name": ["3-Methyl-1-penten-3-ol", "1-Penten-3-ol, 3-methyl-", "3-Methyl-1-penten-3-ol", "3-Hydroxy-3-methyl-1-pentene", "Methylethylvinylcarbinol", "3-Methyl-1-pentene-3-ol", "1-Ethyl-1-methylallyl alcohol", "(\u00b1)-3-Methylpent-1-en-3-ol", "NSC 128156"], "SMILES": "C(CC)(C=C)(C)O", "physical_data": {"Molecular Weight": "100.16", "Molecular Formula": "C6H12O", "Boiling Point": "115-140 \u00b0C", "Density": "0.8378 g/cm\u00b3 @ Temp: 20 \u00b0C"}}