{"cas_no": "91809-67-5", "cn_name": "6-\u7fa7\u57fa\u56db\u7532\u57fa\u7f57\u4e39\u660e", "en_name": ["6-Carboxytetramethylrhodamine", "Xanthylium, 9-(2,5-dicarboxyphenyl)-3,6-bis(dimethylamino)-, inner salt", "6-Carboxytetramethylrhodamine", "N,N,N\u2032,N\u2032-Tetramethyl-6-carboxyrhodamine", "6-TAMRA"], "SMILES": "C([O-])(=O)C1=C(C=2C3=C([O+]=C4C2C=CC(N(C)C)=C4)C=C(N(C)C)C=C3)C=C(C(O)=O)C=C1", "physical_data": {"Molecular Weight": "", "Molecular Formula": "C25H22N2O5", "Melting Point": "&gt;280 \u00b0C"}}