{"cas_no": "91832-40-5", "cn_name": "\u5934\u5b62\u5730\u5c3c", "en_name": ["Cefdinir", "5-Thia-1-azabicyclo[4.2.0]oct-2-ene-2-carboxylic acid, 7-[[(2Z)-2-(2-amino-4-thiazolyl)-2-(hydroxyimino)acetyl]amino]-3-ethenyl-8-oxo-, (6R,7R)-", "5-Thia-1-azabicyclo[4.2.0]oct-2-ene-2-carboxylic acid, 7-[[(2-amino-4-thiazolyl)(hydroxyimino)acetyl]amino]-3-ethenyl-8-oxo-, [6R-[6\u03b1,7\u03b2(Z)]]-", "5-Thia-1-azabicyclo[4.2.0]oct-2-ene-2-carboxylic acid, 7-[[(2Z)-(2-amino-4-thiazolyl)(hydroxyimino)acetyl]amino]-3-ethenyl-8-oxo-, (6R,7R)-", "(6R,7R)-7-[[(2Z)-2-(2-Amino-4-thiazolyl)-2-(hydroxyimino)acetyl]amino]-3-ethenyl-8-oxo-5-thia-1-azabicyclo[4.2.0]oct-2-ene-2-carboxylic acid", "FK 482", "BMY 28488", "Cefdinir", "CI 983", "Cefzon", "CFDN", "Adcef", "Omnicef", "Cefnil", "Cefdiel", "Kefnir", "Zinir"], "SMILES": "C(O)(=O)C=1N2C(C(NC(C(=NO)C3=CSC(N)=N3)=O)C2=O)SCC1C=C", "physical_data": {"Molecular Weight": "395.41", "Molecular Formula": "C14H13N5O5S2", "Melting Point": "170 \u00b0C (decomp)"}}