{"cas_no": "919-29-9", "cn_name": "\u539f\u620a\u9178\u4e09\u4e59\u916f", "en_name": ["1,1,1-Triethoxypentane", "Pentane, 1,1,1-triethoxy-", "Orthovaleric acid, triethyl ester", "1,1,1-Triethoxypentane", "Triethyl orthovalerate", "Triethyl orthopentanoate"], "SMILES": "C(CCCC)(OCC)(OCC)OCC", "physical_data": {"Molecular Weight": "204.31", "Molecular Formula": "C11H24O3", "Boiling Point": "49-50 \u00b0C @ Press: 3 Torr", "Density": "0.873 g/cm\u00b3 @ Temp: 25 \u00b0C"}}