{"cas_no": "919-30-2", "cn_name": "3-\u6c28\u57fa\u4e19\u57fa\u4e09\u4e59\u6c27\u57fa\u7845\u70f7", "en_name": ["(3-Aminopropyl)triethoxysilane", "1-Propanamine, 3-(triethoxysilyl)-", "Propylamine, 3-(triethoxysilyl)-", "3-(Triethoxysilyl)-1-propanamine", "A 1100", "(\u03b3-Aminopropyl)triethoxysilane", "AGM 9", "3-(Triethoxysilyl)propylamine", "Silane A 1100", "A 1112", "NUCA 1100", "Silane AMG 9", "KH 550", "A 1102", "Dynasylan AMEO", "NB 1114", "Triethoxy(3-aminopropyl)silane", "KBE 903", "GF 93", "Prosil 220", "Prosil 221", "APS-E", "Sila-Ace S 330", "TSL 8331", "A 0750", "APTES", "VM 651 (coupling agent)", "VM 651", "Silicone A 1100", "APS", "S 330", "3-(Triethoxysilyl)-1-propylamine", "A 1100 (coupling agent)", "Triethoxy(\u03b3-aminopropyl)silane", "Hydrosil 2627", "X 12-843", "Silquest A 1100", "AMEO", "Unisilan 13", "APS (coupling agent)", "Dynasylan AMEO-T", "WD 50", "\u03b3-Triethoxysilylpropylamine", "AP 1690", "Dynasylan 1203", "A 1102 (silane derivative)", "Z 6011", "3-APTES", "TSC 202", "(Aminopropyl)triethoxysilane", "(3-Aminopropyl)triethoxysilane", "Silquest A 1102", "3-(Triethoxysilyl)propanamine", "DS-AMEO", "A 1112 (coupling agent)", "SIA 0610.0", "Sila-Ace MS 3201", "Surfcoat LX", "NSC 95428", "Unisil 13", "C 50752", "APS-E (coupling agent)", "KH 550 (amine)", "Dow Corning Z 6011", "A 1106", "Silquest A 1106", "U 13 (coupling agent)", "U 13", "Silwet A 1100", "KBE 903P", "KS 600", "Silquest A 1101", "A 1101 coupling agent", "A 1101", "Pyralin VM 651", "KH 507PS10S", "Silquest A 110", "AX 1100", "KH 500", "Dynasylan Hydrosil 2627", "Geniosil GF 93", "Toray Silicone Z 6011", "A 110", "APTS", "H 550", "(\u03b3-Aminopropyl)triethoxylsilane", "Sila-Ace 330", "SH 6011", "AMS 70", "\u03b3-Aminpropyltriethoxysilane", "DB 550", "Xiameter OFS 6011", "JH-A 110", "SCA 1100", "Silquest 11009", "A 3648", "Silsoft A 1100", "KEM 903", "3-(Triethoxysilanyl)propylamine", "LS 3150", "E-Acroseal", "KBE 930", "(3-Aminopropyl)triethoxylsilane", "LT 550", "Silane coupling agent KH550", "L 6376", "OFS 6011", "SCA-A 10E", "CY 550", "Deolink Amino TE", "FD 550", "FD 550 (coupling agent)", "PC 1100", "Momentive A 1100", "CG 550", "Nanoflex TTN 500", "A 10668", "Dynasylan ANEI", "3-(Triethoxysilyl)propane-1-amine", "NQ 55", "LD 550", "KH 2550", "Dynasylan SIVO 214", "AM 5", "Dowsil Z 6011", "Andisil 1100", "Dynasylan ARVIEO", "KH 5550", "SG-SI 1100"], "SMILES": "[Si](CCCN)(OCC)(OCC)OCC", "physical_data": {"Molecular Weight": "221.37", "Molecular Formula": "C9H23NO3Si", "Boiling Point": "217 \u00b0C", "Density": "0.94 g/cm\u00b3 @ Temp: 25 \u00b0C"}}