{"cas_no": "919-86-8", "cn_name": "\u5185\u5438\u78f7-S-\u7532\u57fa", "en_name": ["Demeton-S-methyl", "Phosphorothioic acid, S-[2-(ethylthio)ethyl] O,O-dimethyl ester", "Phosphorothioic acid, S-[2-(ethylthio)ethyl] O,O-di-Me ester", "Demeton-S-methyl", "O,O-Dimethyl S-2-(ethylthio)ethyl phosphorothioate", "S-[2-(Ethylthio)ethyl] O,O-dimethyl phosphorothioate", "Metaisoseptox", "Metaisosystox", "Metasystox J", "Methyl isosystox", "S-[2-(Ethylthio)ethyl] O,O-dimethyl thiophosphate", "Methyl demeton thioester", "Metasystox I", "Methylthionodemeton", "Metasystox 55", "Thiometon oxon", "Methylmercaptophos thiol"], "SMILES": "P(SCCSCC)(OC)(OC)=O", "physical_data": {"Molecular Weight": "230.29", "Molecular Formula": "C6H15O3PS2", "Boiling Point": "118 \u00b0C @ Press: 1.0 Torr", "Melting Point": "&lt;25 \u00b0C", "Density": "1.207 g/cm\u00b3 @ Temp: 20 \u00b0C"}}