{"cas_no": "919-94-8", "cn_name": "\u4e59\u57fa\u53d4\u620a\u57fa\u919a", "en_name": ["tert-Amyl ethyl ether", "Butane, 2-ethoxy-2-methyl-", "Ether, ethyl tert-pentyl", "Ether, ethyl tert-pentyl", "2-Ethoxy-2-methylbutane", "Ethyl tert-amyl ether", "tert-Amyl ethyl ether", "Ethyl 1,1-dimethylpropyl ether", "Ethyl tert-pentyl ether"], "SMILES": "C(OCC)(CC)(C)C", "physical_data": {"Molecular Weight": "116.20", "Molecular Formula": "C7H16O", "Boiling Point": "102 \u00b0C", "Density": "0.7657 g/cm\u00b3 @ Temp: 20 \u00b0C"}}