{"cas_no": "919-31-3", "cn_name": "2-\u6c30\u57fa\u4e59\u57fa\u4e09\u4e59\u6c27\u57fa\u7845\u70f7", "en_name": ["(2-Cyanoethyl)triethoxysilane", "Propanenitrile, 3-(triethoxysilyl)-", "Propionitrile, 3-(triethoxysilyl)-", "3-(Triethoxysilyl)propanenitrile", "(\u03b2-Cyanoethyl)triethoxysilane", "(2-Cyanoethyl)triethoxysilane", "3-(Triethoxysilyl)propionitrile", "Cyanoethyltriethoxysilane", "NSC 77092"], "SMILES": "[Si](CCC#N)(OCC)(OCC)OCC", "physical_data": {"Molecular Weight": "217.34", "Molecular Formula": "C9H19NO3Si", "Boiling Point": "224-225 \u00b0C", "Density": "0.979 g/cm\u00b3"}}