{"cas_no": "91940-87-3", "cn_name": "ZATEBRADINE HCL", "en_name": ["2H-3-Benzazepin-2-one, 3-[3-[[2-(3,4-dimethoxyphenyl)ethyl]methylamino]propyl]-1,3,4,5-tetrahydro-7,8-dimethoxy-, hydrochloride (1:1)", "2H-3-Benzazepin-2-one, 3-[3-[[2-(3,4-dimethoxyphenyl)ethyl]methylamino]propyl]-1,3,4,5-tetrahydro-7,8-dimethoxy-, hydrochloride (1:1)", "2H-3-Benzazepin-2-one, 3-[3-[[2-(3,4-dimethoxyphenyl)ethyl]methylamino]propyl]-1,3,4,5-tetrahydro-7,8-dimethoxy-, monohydrochloride", "UL-FS 49", "ULFS 49CL", "Zatebradine hydrochloride"], "SMILES": "O(C)C=1C=C2C(=CC1OC)CC(=O)N(CCCN(CCC3=CC(OC)=C(OC)C=C3)C)CC2.Cl", "physical_data": {"Molecular Weight": "", "Molecular Formula": "C26H36N2O5.ClH", "Melting Point": "168 \u00b0C"}}