{"cas_no": "92-04-6", "cn_name": "2-\u6c2f-4-\u82ef\u57fa\u82ef\u915a", "en_name": ["2-Chloro-4-phenylphenol", "[1,1\u2032-Biphenyl]-4-ol, 3-chloro-", "4-Biphenylol, 3-chloro-", "Phenol, 2-chloro-4-phenyl-", "3-Chloro[1,1\u2032-biphenyl]-4-ol", "2-Chloro-4-phenylphenol", "Dowicide 4", "4-Phenyl-2-chlorophenol", "2-Chloro-p-phenylphenol", "3-Chloro-4-biphenylol", "o-Chloro-p-phenylphenol", "Sanidril", "4-Hydroxy-3-chlorobiphenyl", "3-Chloro-4-hydroxybiphenyl", "NSC 3858"], "SMILES": "ClC=1C=C(C=CC1O)C2=CC=CC=C2", "physical_data": {"Molecular Weight": "204.65", "Molecular Formula": "C12H9ClO", "Boiling Point": "161 \u00b0C", "Melting Point": "77 \u00b0C"}}