{"cas_no": "92-06-8", "cn_name": "\u95f4\u4e09\u8054\u82ef", "en_name": ["m-Terphenyl", "1,1\u2032:3\u2032,1\u2032\u2032-Terphenyl", "m-Terphenyl", "Benzene, m-diphenyl-", "m-Diphenylbenzene", "Santowax M", "m-Triphenyl", "1,3-Terphenyl", "1,1\u2032-Biphenyl, 3-phenyl-", "1,3-Diphenylbenzene", "3-Phenyl-1,1\u2032-biphenyl", "G 340", "NSC 6808", "T 3009"], "SMILES": "C1(=CC(=CC=C1)C2=CC=CC=C2)C3=CC=CC=C3", "physical_data": {"Molecular Weight": "230.30", "Molecular Formula": "C18H14", "Boiling Point": "363 \u00b0C @ Press: 760 Torr", "Melting Point": "87 \u00b0C", "Density": "1.2 g/cm\u00b3"}}