{"cas_no": "92-00-2", "cn_name": "3-\u6c2f-N,N-\u4e8c(2-\u7f9f\u57fa\u4e59\u57fa)\u82ef\u80fa", "en_name": ["2,2\u2032-[(3-Chlorophenyl)imino]bis[ethanol]", "Ethanol, 2,2\u2032-[(3-chlorophenyl)imino]bis-", "Ethanol, 2,2\u2032-[(m-chlorophenyl)imino]di-", "2,2\u2032-[(3-Chlorophenyl)imino]bis[ethanol]", "N-(3-Chlorophenyl)diethanolamine", "2,2\u2032-[(m-Chlorophenyl)imino]diethanol", "N-(m-Chlorophenyl)diethanolamine", "3-Chloro-N,N-bis(2-hydroxyethyl)aniline", "N,N-Bis(hydroxyethyl)-3-chloroaniline", "N,N-Bis(\u03b2-hydroxyethyl)-m-chloroaniline", "m-Chloro-N,N-bis-\u03b2-hydroxyethylaniline", "N,N-Bis(2-hydroxyethyl)-m-chloroaniline", "m-Chloro-N,N-bis(2-hydroxyethyl)aniline", "N,N-Bis(2-hydroxyethyl)-3-chloroaniline", "NSC 58170", "2,2\u2032-((3-Chlorophenyl)azanediyl)diethanol", "2-[(3-Chlorophenyl)(2-hydroxyethyl)amino]ethan-1-ol", "2-[3-Chloro-N-(2-hydroxyethyl)anilino]ethanol"], "SMILES": "N(CCO)(CCO)C1=CC(Cl)=CC=C1", "physical_data": {"Molecular Weight": "215.68", "Molecular Formula": "C10H14ClNO2", "Boiling Point": "208-213 \u00b0C @ Press: 4 Torr", "Melting Point": "88-92 \u00b0C"}}