{"cas_no": "92-02-4", "cn_name": "3-(N,N-\u4e8c\u7f9f\u4e59\u57fa)\u6c28\u57fa\u4e59\u9170\u82ef\u80fa", "en_name": ["N-[3-[Bis(2-hydroxyethyl)amino]phenyl]acetamide", "Acetamide, N-[3-[bis(2-hydroxyethyl)amino]phenyl]-", "Acetanilide, 3\u2032-[bis(2-hydroxyethyl)amino]-", "N-[3-[Bis(2-hydroxyethyl)amino]phenyl]acetamide", "3\u2032-[Bis(2-hydroxyethyl)amino]acetanilide", "3-Acetylamino-N,N-di(\u03b2-hydroxyethyl)aniline", "m-[Bis(2-hydroxyethyl)amino]acetanilide", "N,N-Bis(\u03b2-hydroxyethyl)-m-(acetylamino)aniline", "3-Acetamido-N,N-bis(2-hydroxyethyl)aniline", "3-(Acetylamino)-N,N-bis(2-hydroxyethyl)aniline", "m-Acetamido-N,N-bis(2-hydroxyethyl)aniline"], "SMILES": "N(CCO)(CCO)C1=CC(NC(C)=O)=CC=C1", "physical_data": {"Molecular Weight": "238.28", "Molecular Formula": "C12H18N2O3", "Melting Point": "116 \u00b0C"}}