{"cas_no": "92-15-9", "cn_name": "\u90bb\u7532\u6c27\u57fa-N-\u4e59\u9170\u4e59\u9170\u82ef\u80fa", "en_name": ["o-Acetoacetanisidide", "Butanamide, N-(2-methoxyphenyl)-3-oxo-", "o-Acetoacetanisidide", "N-(2-Methoxyphenyl)-3-oxobutanamide", "Acetoacetyl-o-anisidine", "o-Methoxyacetoacetanilide", "2-(Acetoacetylamino)anisole", "Acetoacetic acid o-anisidide", "2\u2032-Methoxyacetoacetanilide", "Acetoacetyl-o-anisidide", "1-Acetoacetylamino-2-methoxybenzene", "N-Acetoacetyl-o-anisidine", "Acetoacetic acid 2-methoxyanilide", "Acetoacetic acid 2-anisidide", "Acetoaceto-o-anisidide", "Acetoacet-2-anisidide", "NSC 7563", "N-(2-Methoxyphenyl)acetoacetamide"], "SMILES": "N(C(CC(C)=O)=O)C1=C(OC)C=CC=C1", "physical_data": {"Molecular Weight": "207.23", "Molecular Formula": "C11H13NO3", "Melting Point": "86-87 \u00b0C"}}