{"cas_no": "92-10-4", "cn_name": "4-(N-\u4e59\u57fa-N-\u6c2f\u4e59\u57fa)\u6c28\u57fa-2-\u7532\u57fa\u82ef\u7532\u919b", "en_name": ["4-[(2-Chloroethyl)ethylamino]-2-methylbenzaldehyde", "Benzaldehyde, 4-[(2-chloroethyl)ethylamino]-2-methyl-", "o-Tolualdehyde, 4-[(2-chloroethyl)ethylamino]-", "4-[(2-Chloroethyl)ethylamino]-2-methylbenzaldehyde", "4-[(2-Chloroethyl)ethylamino]-o-tolualdehyde"], "SMILES": "N(CCCl)(CC)C1=CC(C)=C(C=O)C=C1", "physical_data": {"Molecular Weight": "225.71", "Molecular Formula": "C12H16ClNO", "Melting Point": "51-51.5 \u00b0C"}}