{"cas_no": "92-13-7", "cn_name": "\u6bdb\u679c\u82b8\u9999\u78b1", "en_name": ["Pilocarpine", "2(3H)-Furanone, 3-ethyldihydro-4-[(1-methyl-1H-imidazol-5-yl)methyl]-, (3S,4R)-", "Pilocarpine", "2(3H)-Furanone, 3-ethyldihydro-4-[(1-methyl-1H-imidazol-5-yl)methyl]-, (3S-cis)-", "(3S,4R)-3-Ethyldihydro-4-[(1-methyl-1H-imidazol-5-yl)methyl]-2(3H)-furanone", "Pilocarpol", "Pilocarpine, (+)-", "(+)-Pilocarpine", "Pilokarpin", "Syncarpine", "Ocusert P 20", "Ocusert Pilo 40", "Ocucarpine", "Ocusert Pilo", "Spersacarpine", "MeSH ID: D010862"], "SMILES": "C(C1C(CC)C(=O)OC1)C=2N(C)C=NC2", "physical_data": {"Molecular Weight": "208.26", "Molecular Formula": "C11H16N2O2", "Boiling Point": "260 \u00b0C", "Melting Point": "34 \u00b0C"}}