{"cas_no": "92-29-5", "cn_name": "\u4e09\u82ef\u7532\u919b\u7f29\u4e8c\u80fa", "en_name": ["1-Phenyl-N,N\u2032-bis(phenylmethylene)methanediamine", "Methanediamine, 1-phenyl-N,N\u2032-bis(phenylmethylene)-", "Toluene-\u03b1,\u03b1-diamine, N,N\u2032-dibenzylidene-", "Hydrobenzamide", "1-Phenyl-N,N\u2032-bis(phenylmethylene)methanediamine", "N,N\u2032-Dibenzylidenetoluene-\u03b1,\u03b1-diamine", "1,3,5-Triphenyl-2,4-diaza-1,4-pentadiene", "NSC 1005", "NSC 122123", "Phenylbis[(benzylidene)amino]methane", "Benzaldehyde Hydrobenzamide"], "SMILES": "C(N=CC1=CC=CC=C1)(N=CC2=CC=CC=C2)C3=CC=CC=C3", "physical_data": {"Molecular Weight": "298.38", "Molecular Formula": "C21H18N2", "Boiling Point": "35 \u00b0C @ Press: 35 mmHg", "Melting Point": "102 \u00b0C"}}