{"cas_no": "92-22-8", "cn_name": "2',5'-\u4e8c\u4e59\u6c27\u57fa\u82ef\u9170\u66ff\u82ef\u80fa", "en_name": ["N-(2,5-Diethoxyphenyl)benzamide", "Benzamide, N-(2,5-diethoxyphenyl)-", "Benzanilide, 2\u2032,5\u2032-diethoxy-", "N-(2,5-Diethoxyphenyl)benzamide", "2\u2032,5\u2032-Diethoxybenzanilide", "NSC 163154"], "SMILES": "N(C(=O)C1=CC=CC=C1)C2=C(OCC)C=CC(OCC)=C2", "physical_data": {"Molecular Weight": "285.34", "Molecular Formula": "C17H19NO3", "Melting Point": "87-89 \u00b0C"}}