{"cas_no": "92-24-0", "cn_name": "\u5e76\u56db\u82ef", "en_name": ["Naphthacene", "Naphthacene", "Benz[b]anthracene", "2,3-Benzanthrene", "Chrysogen", "Rubene", "Tetracene (hydrocarbon)", "2,3-Benzanthracene", "Tetracene"], "SMILES": "C12=C(C=C3C(=C1)C=CC=C3)C=C4C(=C2)C=CC=C4", "physical_data": {"Molecular Weight": "228.29", "Molecular Formula": "C18H12", "Boiling Point": "190-191 \u00b0C @ Press: 12 Torr", "Melting Point": "357 \u00b0C"}}