{"cas_no": "92-30-8", "cn_name": "2-\u4e09\u6c1f\u7532\u57fa\u5429\u567b\u55ea", "en_name": ["2-(Trifluoromethyl)-10H-phenothiazine", "10H-Phenothiazine, 2-(trifluoromethyl)-", "Phenothiazine, 2-(trifluoromethyl)-", "2-(Trifluoromethyl)-10H-phenothiazine", "2-(Trifluoromethyl)phenothiazine", "NSC 50438"], "SMILES": "C(F)(F)(F)C=1C=C2C(SC=3C(N2)=CC=CC3)=CC1", "physical_data": {"Molecular Weight": "267.27", "Molecular Formula": "C13H8F3NS", "Melting Point": "188-189 \u00b0C"}}