{"cas_no": "92-33-1", "cn_name": "1-(10H-\u5429\u567b\u55ea-2-\u57fa)\u4e19-1-\u916e", "en_name": ["1-(10H-Phenothiazin-2-yl)-1-propanone", "1-Propanone, 1-(10H-phenothiazin-2-yl)-", "1-Propanone, 1-phenothiazin-2-yl-", "1-(10H-Phenothiazin-2-yl)-1-propanone", "2-Propionylphenothiazine"], "SMILES": "C(CC)(=O)C=1C=C2C(SC=3C(N2)=CC=CC3)=CC1", "physical_data": {"Molecular Weight": "255.33", "Molecular Formula": "C15H13NOS", "Melting Point": "172-173 \u00b0C"}}