{"cas_no": "92-36-4", "cn_name": "2-(4-\u6c28\u57fa\u82ef\u57fa)-6-\u7532\u57fa\u82ef\u5e76\u567b\u5511", "en_name": ["2-(4-Aminophenyl)-6-methylbenzothiazole", "Benzenamine, 4-(6-methyl-2-benzothiazolyl)-", "Benzothiazole, 2-(p-aminophenyl)-6-methyl-", "Benzothiazole, 1-(p-aminophenyl)-5-methyl-", "4-(6-Methyl-2-benzothiazolyl)benzenamine", "2-(4-Aminophenyl)-6-methylbenzothiazole", "Dehydrothio-p-toluidine", "4-(6-Methyl-2-benzothiazolyl)aniline", "2-(p-Aminophenyl)-6-methylbenzothiazole", "NSC 15370", "NSC 57678", "4-(6-Methylbenzo[d]thiazol-2-yl)aniline"], "SMILES": "NC1=CC=C(C2=NC=3C(S2)=CC(C)=CC3)C=C1", "physical_data": {"Molecular Weight": "240.32", "Molecular Formula": "C14H12N2S", "Boiling Point": "434 \u00b0C", "Melting Point": "194.8 \u00b0C"}}