{"cas_no": "92-35-3", "cn_name": "\u786b\u8272\u7d20", "en_name": ["Thiochrome", "5H-Pyrimido[4,5-d]thiazolo[3,2-a]pyrimidine-8-ethanol, 2,7-dimethyl-", "Thiachromine-8-ethanol, 2,7-dimethyl-", "Thiochrome", "2,7-Dimethyl-5H-pyrimido[4,5-d]thiazolo[3,2-a]pyrimidine-8-ethanol", "NSC 56339", "2-(2,7-Dimethyl-5H-pyrimido[4,5-d]thiazolo[3,2-a]pyrimidin-8-yl)ethanol"], "SMILES": "CC=1N2C(=NC=3C(C2)=CN=C(C)N3)SC1CCO", "physical_data": {"Molecular Weight": "262.33", "Molecular Formula": "C12H14N4OS", "Melting Point": "228.8 \u00b0C"}}