{"cas_no": "92-39-7", "cn_name": "2-\u6c2f\u5429\u567b\u55ea", "en_name": ["2-Chlorophenothiazine", "10H-Phenothiazine, 2-chloro-", "Phenothiazine, 2-chloro-", "2-Chloro-10H-phenothiazine", "2-Chlorophenothiazine", "NSC 170953", "NSC 17469", "NSC 67188"], "SMILES": "ClC=1C=C2C(SC=3C(N2)=CC=CC3)=CC1", "physical_data": {"Molecular Weight": "233.72", "Molecular Formula": "C12H8ClNS", "Melting Point": "199.5 \u00b0C"}}