{"cas_no": "92-44-4", "cn_name": "2,3-\u4e8c\u7f9f\u57fa\u8418", "en_name": ["2,3-Dihydroxynaphthalene", "2,3-Naphthalenediol", "2,3-Dihydroxynaphthalene", "NSC 8707", "D 0593"], "SMILES": "OC1=CC2=C(C=C1O)C=CC=C2", "physical_data": {"Molecular Weight": "160.17", "Molecular Formula": "C10H8O2", "Melting Point": "162 \u00b0C"}}