{"cas_no": "92-48-8", "cn_name": "6-\u7532\u57fa\u9999\u8c46\u7d20", "en_name": ["6-Methylcoumarin", "2H-1-Benzopyran-2-one, 6-methyl-", "Coumarin, 6-methyl-", "6-Methyl-2H-1-benzopyran-2-one", "6-MC", "6-Methylbenzopyrone", "6-Methylcoumarin", "6-Methylcoumarinic anhydride", "Toncarine", "NSC 5870", "6-Methyl-2H-chromen-2-one"], "SMILES": "CC=1C=C2C(OC(=O)C=C2)=CC1", "physical_data": {"Molecular Weight": "160.17", "Molecular Formula": "C10H8O2", "Boiling Point": "304 \u00b0C", "Melting Point": "76.5 \u00b0C"}}