{"cas_no": "92-49-9", "cn_name": "N-\u4e59\u57fa-N-\u6c2f\u4e59\u57fa\u82ef\u80fa", "en_name": ["N-(2-Chloroethyl)-N-ethylbenzenamine", "Benzenamine, N-(2-chloroethyl)-N-ethyl-", "Aniline, N-(2-chloroethyl)-N-ethyl-", "N-(2-Chloroethyl)-N-ethylbenzenamine", "N-(2-Chloroethyl)-N-ethylaniline", "Ethyl(chloroethyl)aniline", "N-Ethyl-N-(2-chloroethyl)aniline", "2-(N-Ethylanilino)ethyl chloride"], "SMILES": "N(CCCl)(CC)C1=CC=CC=C1", "physical_data": {"Molecular Weight": "183.68", "Molecular Formula": "C10H14ClN", "Boiling Point": "251-253 \u00b0C", "Melting Point": "45.5-46.5 \u00b0C"}}