{"cas_no": "92-41-1", "cn_name": "2,7-\u8418\u4e8c\u78fa\u9178", "en_name": ["2,7-Naphthalenedisulfonic acid", "2,7-Naphthalenedisulfonic acid", "Naphthalene-2,7-disulfonic acid", "2,7-Disulfonaphthalene", "NSC 65895", "NSC 9589"], "SMILES": "S(=O)(=O)(O)C1=CC2=C(C=CC(S(=O)(=O)O)=C2)C=C1", "physical_data": {"Molecular Weight": "288.30", "Molecular Formula": "C10H8O6S2", "Melting Point": "199 \u00b0C"}}