{"cas_no": "92-43-3", "cn_name": "\u83f2\u5c3c\u916e", "en_name": ["Phenidone", "3-Pyrazolidinone, 1-phenyl-", "2-Pyrazolin-3-ol, 1-phenyl-", "1-Phenyl-3-pyrazolidinone", "Phenidone", "1-Phenyl-3-oxopyrazolidine", "1-Phenyl-3-pyrazolidone", "Fenidon", "1-Phenylpyrazolidine-3-one", "1-Phenyl-4,5-dihydro-1H-pyrazol-3-ol"], "SMILES": "O=C1NN(CC1)C2=CC=CC=C2", "physical_data": {"Molecular Weight": "162.19", "Molecular Formula": "C9H10N2O", "Melting Point": "126 \u00b0C"}}