{"cas_no": "92-52-4", "cn_name": "\u8054\u82ef", "en_name": ["Biphenyl", "1,1\u2032-Biphenyl", "Biphenyl", "Diphenyl", "Phenylbenzene", "Bibenzene", "1,1\u2032-Diphenyl", "Tetrosin LY", "Carolid AL", "NSC 14916"], "SMILES": "C1(=CC=CC=C1)C2=CC=CC=C2", "physical_data": {"Molecular Weight": "154.21", "Molecular Formula": "C12H10", "Boiling Point": "254-255 \u00b0C", "Melting Point": "69-71 \u00b0C", "Density": "1.041 g/cm\u00b3 @ Temp: 20 \u00b0C"}}