{"cas_no": "92-51-3", "cn_name": "\u8054\u73af\u5df1\u70f7", "en_name": ["Bicyclohexyl", "1,1\u2032-Bicyclohexyl", "Bicyclohexyl", "Cyclohexane, cyclohexyl-", "Dicyclohexyl", "Dodecahydrobiphenyl", "1,1\u2032-Biphenyl, dodecahydro-", "Dicyclohexane", "Cyclohexylcyclohexane", "NSC 59855"], "SMILES": "C1(CCCCC1)C2CCCCC2", "physical_data": {"Molecular Weight": "166.30", "Molecular Formula": "C12H22", "Boiling Point": "238 \u00b0C", "Melting Point": "4 \u00b0C", "Density": "0.8797 g/cm\u00b3 @ Temp: 20 \u00b0C"}}