{"cas_no": "92-55-7", "cn_name": "5-\u785d\u57fa\u7ce0\u919b\u4e8c\u4e59\u9178\u916f", "en_name": ["5-Nitrofurfural diacetate", "Methanediol, 1-(5-nitro-2-furanyl)-, 1,1-diacetate", "Methanediol, (5-nitro-2-furanyl)-, diacetate (ester)", "2-Furanmethanediol, 5-nitro-, diacetate", "2-(Diacetoxymethyl)-5-nitrofuran", "5-Nitrofurfurylidene diacetate", "5-Nitro-2-furanmethanediol diacetate", "5-Nitrofurfural diacetate", "5-Nitrofuraldehyde diacetate", "5-Nitro-2-furfurylidene diacetate", "NSC 5411", "(Acetyloxy)(5-nitrofuran-2-yl)methyl acetate", "(Acetyloxy)(5-nitro-2-furyl)methyl acetate"], "SMILES": "C(OC(C)=O)(OC(C)=O)C=1OC(N(=O)=O)=CC1", "physical_data": {"Molecular Weight": "243.17", "Molecular Formula": "C9H9NO7", "Melting Point": "91 \u00b0C"}}