{"cas_no": "92-53-5", "cn_name": "N-\u82ef\u57fa\u5417\u5549", "en_name": ["4-Phenylmorpholine", "Morpholine, 4-phenyl-", "4-Phenylmorpholine", "N-Phenylmorpholine", "Morpholinobenzene", "(4-Morpholinyl)benzene", "NSC 239125", "NSC 2628"], "SMILES": "C1(=CC=CC=C1)N2CCOCC2", "physical_data": {"Molecular Weight": "163.22", "Molecular Formula": "C10H13NO", "Boiling Point": "165-170 \u00b0C", "Melting Point": "52.5 \u00b0C"}}