{"cas_no": "92-59-1", "cn_name": "N-\u4e59\u57fa-N-\u82c4\u57fa\u82ef\u80fa", "en_name": ["Ethylbenzylaniline", "Benzenemethanamine, N-ethyl-N-phenyl-", "Benzylamine, N-ethyl-N-phenyl-", "N-Ethyl-N-phenylbenzenemethanamine", "N-Ethyl-N-benzylaniline", "Phenylethylbenzylamine", "N-Benzyl-N-ethylaniline", "Benzylethylphenylamine", "Ethylbenzylaniline", "N-Ethyl-N-phenylbenzylamine", "N-Benzyl-N-phenyl-N-ethylamine", "NSC 1805", "NSC 406962"], "SMILES": "N(CC1=CC=CC=C1)(CC)C2=CC=CC=C2", "physical_data": {"Molecular Weight": "211.30", "Molecular Formula": "C15H17N", "Boiling Point": "287 \u00b0C @ Press: 710 Torr", "Melting Point": "34 \u00b0C", "Density": "1.034 g/cm\u00b3 @ Temp: 19 \u00b0C"}}