{"cas_no": "92-50-2", "cn_name": "N-\u4e59\u57fa-N-\u7f9f\u4e59\u57fa\u82ef\u80fa", "en_name": ["2-(Ethylphenylamino)ethanol", "Ethanol, 2-(ethylphenylamino)-", "Ethanol, 2-(N-ethylanilino)-", "2-(Ethylphenylamino)ethanol", "\u03b2-Ethylanilinoethyl alcohol", "N-Ethyl-N-(\u03b2-hydroxyethyl)aniline", "Ethylphenylethanolamine", "Hydroxyethylethylaniline", "Phenylethylethanolamine", "Ethyl(\u03b2-hydroxyethyl)aniline", "N-Ethyl(\u03b2-hydroxyethyl)aniline", "2-(N-Ethylanilino)ethanol", "N-Ethyl-N-phenylethanolamine", "N-Ethylanilinoethanol", "N-Ethyl-N-phenylaminoethanol", "N-Ethyl-N-(2-hydroxyethyl)aniline", "N-(2-Hydroxyethyl)-N-ethylaniline", "N-Ethyl-N-(hydroxyethyl)aniline", "2-(N-Ethyl-N-phenylamino)ethanol", "N-Phenyl-N-ethyl-2-aminoethanol", "NSC 7485", "Ethylanilinoethanol", "N-Ethyl-N-ethanol-aniline", "2-[Ethyl(phenyl)amino]ethan-1-ol"], "SMILES": "N(CCO)(CC)C1=CC=CC=C1", "physical_data": {"Molecular Weight": "165.23", "Molecular Formula": "C10H15NO", "Boiling Point": "268 \u00b0C", "Melting Point": "37 \u00b0C", "Density": "1.0506 g/cm\u00b3 @ Temp: 20 \u00b0C"}}