{"cas_no": "92-54-6", "cn_name": "N-\u82ef\u57fa\u54cc\u55ea", "en_name": ["1-Phenylpiperazine", "Piperazine, 1-phenyl-", "1-Phenylpiperazine", "N-Phenylpiperazine", "Phenylpiperazine", "NPP", "1-Phenylpiperiazine", "CD 3-3013"], "SMILES": "C1(=CC=CC=C1)N2CCNCC2", "physical_data": {"Molecular Weight": "162.23", "Molecular Formula": "C10H14N2", "Boiling Point": "286.5 \u00b0C", "Melting Point": "235-238 \u00b0C", "Density": "1.0725 g/cm\u00b3 @ Temp: 14 \u00b0C"}}