{"cas_no": "92-67-1", "cn_name": "4-\u6c28\u57fa\u8054\u82ef", "en_name": ["4-Aminobiphenyl", "[1,1\u2032-Biphenyl]-4-amine", "4-Biphenylamine", "p-Aminobiphenyl", "4-Aminobiphenyl", "p-Aminodiphenyl", "4-Aminodiphenyl", "p-Phenylaniline", "Xenylamine", "p-Biphenylamine", "p-Xenylamine", "4-Biphenylylamine", "4-Phenylaniline", "4-Phenylbenzenamine", "(1,1\u2032-Biphenyl-4-yl)amine", "NSC 7660", "4-Amino-1,1\u2032-biphenyl", "p-Aminophenyl benzene"], "SMILES": "NC1=CC=C(C=C1)C2=CC=CC=C2", "physical_data": {"Molecular Weight": "169.22", "Molecular Formula": "C12H11N", "Boiling Point": "302 \u00b0C", "Melting Point": "53.5 \u00b0C", "Density": "1.16 g/cm\u00b3"}}