{"cas_no": "92-64-8", "cn_name": "N-(2-\u6c30\u4e59\u57fa)-N-\u7f9f\u4e59\u57fa\u82ef\u80fa", "en_name": ["3-[(2-Hydroxyethyl)phenylamino]propanenitrile", "Propanenitrile, 3-[(2-hydroxyethyl)phenylamino]-", "Propionitrile, 3-[N-(2-hydroxyethyl)anilino]-", "3-[(2-Hydroxyethyl)phenylamino]propanenitrile", "N-\u03b2-Cyanoethyl-N-\u03b2-hydroxyethylaniline", "N-(2-Cyanoethyl)-N-(2-hydroxyethyl)aniline", "N-Cyanoethyl-N-hydroxyethylaniline", "N-Cyanoethyl-N-ethanolaniline", "3-[(2-Hydroxyethyl)(phenyl)amino]propanenitrile"], "SMILES": "N(CCC#N)(CCO)C1=CC=CC=C1", "physical_data": {"Molecular Weight": "190.24", "Molecular Formula": "C11H14N2O", "Boiling Point": "205-207 \u00b0C @ Press: 8 Torr", "Melting Point": "68 \u00b0C"}}