{"cas_no": "92-62-6", "cn_name": "\u5421\u5576-3,6-\u4e8c\u80fa", "en_name": ["Proflavine", "3,6-Acridinediamine", "Acridine, 3,6-diamino-", "3,6-Diaminoacridine", "Isoflav base", "Proflavin", "Proflavine", "3,7-Diamino-5-azaanthracene", "Acriflavin A", "MeSH ID: D011370"], "SMILES": "NC1=CC2=C(C=C3C(=N2)C=C(N)C=C3)C=C1", "physical_data": {"Molecular Weight": "209.25", "Molecular Formula": "C13H11N3", "Melting Point": "284-286 \u00b0C"}}