{"cas_no": "92-66-0", "cn_name": "4-\u6eb4\u4ee3\u8054\u82ef", "en_name": ["4-Bromobiphenyl", "1,1\u2032-Biphenyl, 4-bromo-", "Biphenyl, 4-bromo-", "4-Bromo-1,1\u2032-biphenyl", "p-Phenylbromobenzene", "p-Bromobiphenyl", "4-Biphenylyl bromide", "4-Bromodiphenyl", "p-Bromodiphenyl", "p-Biphenylyl bromide", "(4-Bromophenyl)benzene", "p-Phenylphenyl bromide", "1-Bromo-4-phenylbenzene", "4-Bromobiphenyl", "NSC 406933", "4\u2032-Bromobiphenyl", "4-Biphenyl bromide", "PBB 3", "4-Phenylbromobenzene", "p-Bromophenylbenzene"], "SMILES": "BrC1=CC=C(C=C1)C2=CC=CC=C2", "physical_data": {"Molecular Weight": "233.10", "Molecular Formula": "C12H9Br", "Boiling Point": "310 \u00b0C", "Melting Point": "91.5 \u00b0C"}}