{"cas_no": "92-61-5", "cn_name": "\u4e1c\u83a8\u83ea\u5185\u916f", "en_name": ["Scopoletin", "2H-1-Benzopyran-2-one, 7-hydroxy-6-methoxy-", "Coumarin, 7-hydroxy-6-methoxy-", "7-Hydroxy-6-methoxy-2H-1-benzopyran-2-one", "Chrysatropic acid", "Esculetin 6-methyl ether", "Gelseminic acid", "7-Hydroxy-6-methoxycoumarin", "6-Methoxy-7-hydroxycoumarin", "\u03b2-Methylesculetin", "Murrayetin", "Scopoletin", "6-Methylesculetin", "Scopoletol", "Scopoletine", "Escopoletin", "6-O-Methylesculetin", "Buxuletin", "NSC 405647", "MeSH ID: D012603"], "SMILES": "O(C)C=1C=C2C(=CC1O)OC(=O)C=C2", "physical_data": {"Molecular Weight": "192.17", "Molecular Formula": "C10H8O4", "Melting Point": "204 \u00b0C", "Density": "1.37 g/cm\u00b3"}}