{"cas_no": "92-69-3", "cn_name": "\u5bf9\u7f9f\u57fa\u8054\u82ef", "en_name": ["4-Hydroxybiphenyl", "[1,1\u2032-Biphenyl]-4-ol", "4-Biphenylol", "p-Hydroxybiphenyl", "4-Hydroxydiphenyl", "Paraxenol", "p-Phenylphenol", "4-Phenylphenol", "p-Hydroxydiphenyl", "4-Hydroxybiphenyl", "p-Biphenylol", "4-Diphenylol", "Tetrosin P 300", "MK 1100", "4-Hydroxy-1,1\u2032-biphenyl", "p-Xenol", "NSC 1858", "P-PP", "Daicarrier DK-CN", "DK-CN"], "SMILES": "OC1=CC=C(C=C1)C2=CC=CC=C2", "physical_data": {"Molecular Weight": "170.21", "Molecular Formula": "C12H10O", "Boiling Point": "305-308 \u00b0C", "Melting Point": "164-165 \u00b0C", "Density": "127 g/cm\u00b3 @ Temp: 25 \u00b0C"}}