{"cas_no": "92-70-6", "cn_name": "2-\u7f9f\u57fa-3-\u8418\u7532\u9178", "en_name": ["3-Hydroxy-2-naphthoic acid", "2-Naphthalenecarboxylic acid, 3-hydroxy-", "2-Naphthoic acid, 3-hydroxy-", "3-Hydroxy-2-naphthalenecarboxylic acid", "BON", "BONA", "Developer BON", "2-Hydroxy-3-naphthoic acid", "3-Hydroxy-2-naphthoic acid", "Naphthol B.O.N.", "3-Naphthol-2-carboxylic acid", "BON acid", "2-Hydroxy-3-naphthalenecarboxylic acid", "C.I. Developer 20", "Miketazol Developer ONS", "3-Hydroxy-\u03b2-naphthoic acid", "2-Naphthol-3-carboxylic acid", "2-Hydroxy-3-carboxynaphthalene", "\u03b2-Hydroxy-3-naphthoic acid", "3-Carboxy-2-naphthol", "\u03b2-Hydroxynaphthoic acid", "\u03b2-Oxynaphthoic acid", "2-Hydroxyl-3-naphthoic acid", "NSC 3719", "TCI-B 3229", "H 0281"], "SMILES": "C(O)(=O)C1=CC2=C(C=C1O)C=CC=C2", "physical_data": {"Molecular Weight": "188.18", "Molecular Formula": "C11H8O3", "Melting Point": "222-223 \u00b0C"}}