{"cas_no": "92-73-9", "cn_name": "N-(2,5-\u4e8c\u7532\u6c27\u57fa\u82ef\u57fa)-3-\u7f9f\u57fa-2-\u8418\u7532\u9170\u80fa", "en_name": ["N-(2,5-Dimethoxyphenyl)-3-hydroxy-2-naphthalenecarboxamide", "2-Naphthalenecarboxamide, N-(2,5-dimethoxyphenyl)-3-hydroxy-", "2-Naphthanilide, 3-hydroxy-2\u2032,5\u2032-dimethoxy-", "N-(2,5-Dimethoxyphenyl)-3-hydroxy-2-naphthalenecarboxamide", "Brenthol FO", "3-Hydroxy-2\u2032,5\u2032-dimethoxy-2-naphthanilide", "Naphtol AS-BG", "Naphtol AS-BG Supra", "Sanatol BG", "Solunaptol FOL", "Tulathol AS-BG", "Naphthol AS-BG", "C.I. Azoic Coupling Component 19", "NSC 37618"], "SMILES": "C(NC1=C(OC)C=CC(OC)=C1)(=O)C2=CC3=C(C=C2O)C=CC=C3", "physical_data": {"Molecular Weight": "323.34", "Molecular Formula": "C19H17NO4", "Melting Point": "186-188 \u00b0C"}}