{"cas_no": "92-71-7", "cn_name": "2,5-\u4e8c\u82ef\u57fa\u6076\u5511", "en_name": ["2,5-Diphenyloxazole", "Oxazole, 2,5-diphenyl-", "2,5-Diphenyloxazole", "2,5-Diphenyl-1,3-oxazole", "PPO (scintillator)", "PPO", "Tritosol", "DPO (scintillator)", "DPO", "NSC 24856", "NSC 49168"], "SMILES": "C=1(OC(=NC1)C2=CC=CC=C2)C3=CC=CC=C3", "physical_data": {"Molecular Weight": "221.25", "Molecular Formula": "C15H11NO", "Boiling Point": "360 \u00b0C", "Melting Point": "74 \u00b0C"}}