{"cas_no": "92-79-5", "cn_name": "3-\u7f9f\u57fa-4'-\u7532\u6c27\u57fa-2-\u8418\u7532\u9170\u82ef\u80fa", "en_name": ["3-Hydroxy-N-(4-methoxyphenyl)-2-naphthalenecarboxamide", "2-Naphthalenecarboxamide, 3-hydroxy-N-(4-methoxyphenyl)-", "2-Naphth-p-anisidide, 3-hydroxy-", "3-Hydroxy-N-(4-methoxyphenyl)-2-naphthalenecarboxamide", "C.I. 37535", "Acna Naphthol R", "Amanil Naphthol AS-RL", "Amarthol AS-RL", "Anthonaphthol MRL", "Azoground RL", "Azoic Coupling Component 11", "Azonaphtol PA", "Celcot RBL", "Cibanaphthol RBL", "C.I. Azoic Coupling Component 11", "Daito Grounder RL", "Hiltonaphthol AS-RL", "3-Hydroxy-2-naphth-p-anisidide", "N-[2\u2032-Hydroxy-3\u2032-naphthoyl]-4-methoxyaniline", "Irganaphthol RBL", "Naphtanilide RL", "Naphtanilide RL Supra", "Naphtazol RL", "Naphthanil RL", "Naphthoide RL", "Naphthol AS-RL Dispersible", "Naphthol AS-RL Supra", "Naphtoelan RL", "Naphtol AS-RL", "Naphtol AS-RL Supra", "Sanatol RL", "Solunaptol PAL", "Azotol PA", "Naphthol AS-RL", "2-Hydroxy-3-[(4-methoxyphenyl)carbamoyl]naphthalene", "2-Hydroxy-3-naphth-p-anisidide", "3-Hydroxy-4\u2032-methoxy-2-naphthanilide", "N-(p-Methoxyphenyl)-3-hydroxynaphthalene-2-carbonamide", "Naphthol RL", "NSC 37613", "Anarthol AS-RL", "Conazoic AA", "Dycosthol AS-RL", "Napthol ASRL", "Kiwa Grounder RL", "Naftol AS-RL"], "SMILES": "C(NC1=CC=C(OC)C=C1)(=O)C2=CC3=C(C=C2O)C=CC=C3", "physical_data": {"Molecular Weight": "293.32", "Molecular Formula": "C18H15NO3", "Melting Point": "218-220 \u00b0C"}}