{"cas_no": "92-74-0", "cn_name": "\u8272\u915a AS-PH", "en_name": ["N-(2-Ethoxyphenyl)-3-hydroxy-2-naphthalenecarboxamide", "2-Naphthalenecarboxamide, N-(2-ethoxyphenyl)-3-hydroxy-", "2-Naphtho-o-phenetidide, 3-hydroxy-", "N-(2-Ethoxyphenyl)-3-hydroxy-2-naphthalenecarboxamide", "C.I. 37558", "Acco Naf-Sol AS-PH", "Acco Naphthol AS-PH", "Acna Naphthol OF", "Amanil Naphthol AS-PH", "Amarthol AS-PH", "C.I. Azoic Coupling Component 14", "Daito Grounder PH", "Hiltonaphthol AS-PH", "Kambothol ASPH", "Naphtanilide phenyl", "Naphtanilide phenyl Supra", "Naphtazol OP", "Naphthanil OP", "Naphthol AS-OP", "Naphthol AS-phenyl", "Naphthol AS-phenyl Supra", "Naphthol AS-RO", "Naphtoelan phenyl", "Naphtol AS-phenyl", "Tulathol AS-phenyl", "Azotol OF", "2-Hydroxy-3-naphtho-o-phenetidide", "3-Hydroxy-2-naphtho-o-phenetidide", "N-(2-Ethoxyphenyl)-3-hydroxy-2-naphthamide", "2\u2032-Ethoxy-3-hydroxy-2-naphthanilide", "Naphthol AS-PH", "Azoic Coupling Component 14", "NSC 50681", "Anarthol AS-PH", "Naftol AS-PH", "Napthol ASPH", "Conazoic AD", "Dycosthol AS-PH", "Hebeithol AS-PH", "Kiwa Grounder PH"], "SMILES": "C(NC1=C(OCC)C=CC=C1)(=O)C2=CC3=C(C=C2O)C=CC=C3", "physical_data": {"Molecular Weight": "307.34", "Molecular Formula": "C19H17NO3", "Melting Point": "157-160 \u00b0C"}}