{"cas_no": "92-77-3", "cn_name": "\u8418\u915a AS", "en_name": ["2-Hydroxy-3-naphthoic acid anilide", "2-Naphthalenecarboxamide, 3-hydroxy-N-phenyl-", "2-Naphthanilide, 3-hydroxy-", "3-Hydroxy-N-phenyl-2-naphthalenecarboxamide", "C.I. 37505", "Acco Naphthol AS", "Acna Naphthol C", "Amanil Naphthol AS", "Anthonaphthol AS", "Azoground AS", "Azonaphthol A", "Azotol A", "Brenthol AS", "Celcot RF", "Cibanaphthol RF", "C.I. Azoic Coupling Component 2", "Diathol AS", "Diathol ASF", "Dragonthol A", "Hiltonaphthol AS", "Kambothol AS", "Lake Developer A", "Mitsui Naphthozol AS", "Naftolo MM", "Naphthanilide OL Supra", "Naphtanilide RC", "Naphthanilide RC Supra", "Naphthazol A", "Naphthoide AS", "Naphthoide AS No. 100", "Naphthol ACNA C", "Naphtholate AS", "Naphthol AS Supra", "Naphtoelan A", "Naphtol AS", "Solunaptol A", "Tulathol AS", "Ultrazol I-AS", "Naphthanil AS", "3-Hydroxy-2-naphthanilide", "3-(N-Phenylcarbamoyl)-2-naphthol", "Naphthol AS", "2-Hydroxy-3-naphthanilide", "2-Hydroxy-3-naphthoic anilide", "2-Hydroxy-3-naphthalenecarboxanilide", "2-Hydroxy-3-naphthoic acid anilide", "Naphtol AS-A", "3-Hydroxy-2-naphthalenecarboxanilide", "2-Naphthol-3-carboxylic acid N-phenylamide", "Amarthol AS", "3-Hydroxy-N-phenyl-2-naphthamide", "2-Hydroxy-N-phenyl-3-naphthalenecarboxamide", "3-Hydroxy-2-naphthoic acid anilide", "Aquafine Red E 9", "2-Hydroxy-3-(phenylcarbamoyl)naphthalene", "\u03b1-Naphthol AS", "N-Phenyl-2-hydroxy-3-naphthalenecarboxamide", "Azoic Coupling Component 2", "Kako Grounder AS", "NSC 45173", "3-Hydroxyl-2-naphthanilide", "Anathol AS", "Dycosthol AS", "Hebeithol AS", "Napthol AS", "Naftol AS", "Conazoic Coupling B", "Kiwa Grounder AS", "Orange Base GC", "C.I. Azo Coupling Comp. 2", "N-Phenyl-3-hydroxy-2-naphthamide", "3-Hydroxy-2-naphthoanilide", "Sefen AS", "3-Hydroxy-naphthalene-2-carboxylic acid phenylamide", "H 0313"], "SMILES": "C(NC1=CC=CC=C1)(=O)C2=CC3=C(C=C2O)C=CC=C3", "physical_data": {"Molecular Weight": "263.29", "Molecular Formula": "C17H13NO2", "Melting Point": "296 \u00b0C (decomp)"}}