{"cas_no": "92-82-0", "cn_name": "\u915a\u55ea", "en_name": ["Phenazine", "Phenazine", "Azophenylene", "Dibenzopyrazine", "9,10-Diazaanthracene", "NSC 13157"], "SMILES": "C12=C(N=C3C(=N1)C=CC=C3)C=CC=C2", "physical_data": {"Molecular Weight": "180.21", "Molecular Formula": "C12H8N2", "Boiling Point": "&gt;360 \u00b0C", "Melting Point": "176.5 \u00b0C"}}