{"cas_no": "92-84-2", "cn_name": "\u5429\u567b\u55ea", "en_name": ["Phenothiazine", "10H-Phenothiazine", "Phenothiazine", "ENT 38", "Contaverm", "Dibenzothiazine", "Feeno", "Fenoverm", "Padophene", "Penthazine", "Phenegic", "Phenovis", "Phenoxur", "Phenthiazine", "Thiodiphenylamine", "Dibenzo-1,4-thiazine", "Early bird wormer", "Nemazene", "Reconox", "Nexarbol", "Orimon", "Phenoverm", "Phenzeen", "Danikoropa", "Antage TDP", "NSC 2037", "TDP-G"], "SMILES": "C1=2C(SC=3C(N1)=CC=CC3)=CC=CC2", "physical_data": {"Molecular Weight": "199.27", "Molecular Formula": "C12H9NS", "Boiling Point": "371 \u00b0C @ Press: 760 Torr", "Melting Point": "185.1 \u00b0C", "Density": "1.34 g/cm\u00b3"}}