{"cas_no": "92-85-3", "cn_name": "\u567b\u84bd", "en_name": ["Thianthrene", "Thianthrene", "Thianthren", "Dibenzodithiodioxane", "NSC 439"], "SMILES": "C1=2C(SC=3C(S1)=CC=CC3)=CC=CC2", "physical_data": {"Molecular Weight": "216.32", "Molecular Formula": "C12H8S2", "Boiling Point": "365 \u00b0C", "Melting Point": "159.3 \u00b0C", "Density": "1.43 g/cm\u00b3"}}