{"cas_no": "92-83-1", "cn_name": "\u6c27\u6742\u84bd", "en_name": ["Xanthene", "9H-Xanthene", "Xanthene", "10H-9-Oxaanthracene", "9-Oxa-9,10-dihydroanthracene", "NSC 46931"], "SMILES": "C1=2C(OC=3C(C1)=CC=CC3)=CC=CC2", "physical_data": {"Molecular Weight": "182.22", "Molecular Formula": "C13H10O", "Boiling Point": "311 \u00b0C", "Melting Point": "100.5 \u00b0C"}}