{"cas_no": "92-88-6", "cn_name": "4,4'-\u4e8c\u7f9f\u57fa\u8054\u82ef", "en_name": ["4,4\u2032-Dihydroxybiphenyl", "[1,1\u2032-Biphenyl]-4,4\u2032-diol", "4,4\u2032-Biphenyldiol", "ASM DOD", "p,p\u2032-Biphenol", "4,4\u2032-Dihydroxybiphenyl", "4,4\u2032-Dihydroxydiphenyl", "p,p\u2032-Diphenol", "4,4\u2032-Biphenol", "p-Dihydroxydiphenyl", "DOD", "Antioxidant DOD", "4,4\u2032-Dihydroxy-1,1\u2032-biphenyl", "p,p\u2032-Dihydroxybiphenyl", "4,4\u2032-Bisphenol", "4,4\u2032-Diphenol", "p-Diphenol", "4-(4-Hydroxyphenyl)phenol", "BPL", "BPL (phenol)", "NSC 8711", "B 0464"], "SMILES": "OC1=CC=C(C=C1)C2=CC=C(O)C=C2", "physical_data": {"Molecular Weight": "186.21", "Molecular Formula": "C12H10O2", "Melting Point": "283 \u00b0C"}}