{"cas_no": "92-89-7", "cn_name": "4-(4'-\u785d\u57fa\u82ef\u57fa)\u82ef\u7532\u9178", "en_name": ["4\u2032-Nitro[1,1\u2032-biphenyl]-4-carboxylic acid", "[1,1\u2032-Biphenyl]-4-carboxylic acid, 4\u2032-nitro-", "4-Biphenylcarboxylic acid, 4\u2032-nitro-", "4\u2032-Nitro[1,1\u2032-biphenyl]-4-carboxylic acid", "4\u2032-Nitrobiphenyl-4-carboxylic acid", "4-Nitro-4\u2032-biphenylcarboxylic acid", "4-Carboxy-4\u2032-nitrobiphenyl", "4-(4-Nitrophenyl)benzoic acid", "4\u2032-Nitro-1,1\u2032-biphenyl-4-carboxylic acid", "NSC 210796"], "SMILES": "C(O)(=O)C1=CC=C(C=C1)C2=CC=C(N(=O)=O)C=C2", "physical_data": {"Molecular Weight": "243.21", "Molecular Formula": "C13H9NO4", "Melting Point": "340 \u00b0C"}}