{"cas_no": "92-87-5", "cn_name": "\u8054\u82ef\u80fa", "en_name": ["4,4\u2032-Diaminodiphenyl", "[1,1\u2032-Biphenyl]-4,4\u2032-diamine", "Benzidine", "4,4\u2032-Biphenyldiamine", "C.I. Azoic Diazo Component 112", "4,4\u2032-Diaminobiphenyl", "p-Diaminodiphenyl", "4,4\u2032-Diphenylenediamine", "Fast Corinth Base B", "4,4\u2032-Bianiline", "4,4\u2032-Diaminodiphenyl", "p,p\u2032-Diaminobiphenyl", "p,p\u2032-Bianiline", "4,4\u2032-Diamino-1,1\u2032-biphenyl", "4\u2032-Amino-[1,1\u2032-biphenyl]-4-ylamine", "4-(4-Aminophenyl)aniline", "NSC 146476", "4,4\u2032-Diaminobenzidine"], "SMILES": "NC1=CC=C(C=C1)C2=CC=C(N)C=C2", "physical_data": {"Molecular Weight": "184.24", "Molecular Formula": "C12H12N2", "Boiling Point": "401 \u00b0C", "Melting Point": "120 \u00b0C", "Density": "1.250 g/cm\u00b3 @ Temp: 20 \u00b0C"}}