{"cas_no": "92-86-4", "cn_name": "4,4'-\u4e8c\u6eb4\u8054\u82ef", "en_name": ["4,4\u2032-Dibromobiphenyl", "1,1\u2032-Biphenyl, 4,4\u2032-dibromo-", "Biphenyl, 4,4\u2032-dibromo-", "4,4\u2032-Dibromo-1,1\u2032-biphenyl", "4,4\u2032-Dibromodiphenyl", "p,p\u2032-Dibromobiphenyl", "PBB 15", "4\u2032,4-Dibromobiphenyl", "4,4\u2032-Dibromobiphenyl", "NSC 2098", "1-Bromo-4-(4-bromophenyl)benzene"], "SMILES": "BrC1=CC=C(C=C1)C2=CC=C(Br)C=C2", "physical_data": {"Molecular Weight": "312.00", "Molecular Formula": "C12H8Br2", "Boiling Point": "357.5 \u00b0C", "Melting Point": "164 \u00b0C"}}