{"cas_no": "92-81-9", "cn_name": "9,10-\u4e8c\u6c2b\u5416\u5576", "en_name": ["Acridan", "Acridine, 9,10-dihydro-", "Acridan", "9,10-Dihydroacridine", "Carbazine", "Acridane", "9-Aza-9,10-dihydroanthracene", "NSC 41239"], "SMILES": "C1=2C(NC=3C(C1)=CC=CC3)=CC=CC2", "physical_data": {"Molecular Weight": "181.23", "Molecular Formula": "C13H11N", "Boiling Point": "348 \u00b0C @ Press: 764 Torr", "Melting Point": "169-170 \u00b0C"}}