{"cas_no": "92-91-1", "cn_name": "\u8054\u82ef\u4e59\u916e", "en_name": ["4-Acetylbiphenyl", "Ethanone, 1-[1,1\u2032-biphenyl]-4-yl-", "Acetophenone, 4\u2032-phenyl-", "Acetophenone, p-phenyl-", "1-[1,1\u2032-Biphenyl]-4-ylethanone", "4-Acetylbiphenyl", "p-Phenylacetophenone", "Methyl 4-biphenylyl ketone", "4\u2032-Phenylacetophenone", "4-Biphenylyl methyl ketone", "p-Acetylbiphenyl", "1-Acetyl-4-phenylbenzene", "1,1\u2032-Biphenyl-4-yl methyl ketone", "1-(4-Phenylphenyl)ethanone", "4-Acetyl-1,1\u2032-biphenyl", "1-Biphenyl-4-ylethanone", "NSC 1875", "4-Ethanoylbiphenyl", "p-Acetylphenyl benzene", "1-([1,1\u2032-Biphenyl]-4-yl)ethan-1-one", "1-(4-Phenylphenyl)ethan-1-one"], "SMILES": "C(C)(=O)C1=CC=C(C=C1)C2=CC=CC=C2", "physical_data": {"Molecular Weight": "196.24", "Molecular Formula": "C14H12O", "Boiling Point": "326 \u00b0C", "Melting Point": "121 \u00b0C"}}