{"cas_no": "92-94-4", "cn_name": "\u5bf9\u4e09\u8054\u82ef", "en_name": ["p-Terphenyl", "1,1\u2032:4\u2032,1\u2032\u2032-Terphenyl", "p-Terphenyl", "p-Diphenylbenzene", "Santowax P", "p-Triphenyl", "1,4-Diphenylbenzene", "1,1\u2032-Biphenyl, 4-phenyl-", "PTP", "4-Phenylbiphenyl", "TP", "TP (scintillator)", "PT", "NSC 6810", "4-Phenyl-1,1\u2032-biphenyl", "p-Phenylene trimer", "T 3203", "PPP"], "SMILES": "C1(=CC=C(C=C1)C2=CC=CC=C2)C3=CC=CC=C3", "physical_data": {"Molecular Weight": "230.30", "Molecular Formula": "C18H14", "Boiling Point": "376 \u00b0C", "Melting Point": "210.1 \u00b0C", "Density": "1.234 g/cm\u00b3 @ Temp: 0 \u00b0C"}}