{"cas_no": "92-92-2", "cn_name": "4-\u82ef\u57fa\u82ef\u7532\u9178", "en_name": ["[1,1\u2032-Biphenyl]-4-carboxylic acid", "[1,1\u2032-Biphenyl]-4-carboxylic acid", "4-Biphenylcarboxylic acid", "Benzoic acid, p-phenyl-", "p-Phenylbenzoic acid", "4-Carboxybiphenyl", "4-Diphenylcarboxylic acid", "4-Phenylbenzoic acid", "4-Carboxy-1,1\u2032-biphenyl", "4-Biphenylylcarboxylic acid", "p-Biphenylcarboxylic acid", "NSC 23040"], "SMILES": "C(O)(=O)C1=CC=C(C=C1)C2=CC=CC=C2", "physical_data": {"Molecular Weight": "198.22", "Molecular Formula": "C13H10O2", "Melting Point": "228 \u00b0C"}}