{"cas_no": "92-93-3", "cn_name": "4-\u785d\u57fa\u8054\u82ef", "en_name": ["4-Nitro-1,1\u2032-biphenyl", "1,1\u2032-Biphenyl, 4-nitro-", "Biphenyl, 4-nitro-", "4-Nitro-1,1\u2032-biphenyl", "4-Nitrobiphenyl", "Ba 2794", "p-Nitrobiphenyl", "p-Nitrodiphenyl", "4-Nitrodiphenyl", "1-Nitro-4-phenylbenzene", "p-Phenylnitrobenzene", "4-Phenylnitrobenzene", "NSC 1324", "4-(4-Nitrophenyl)benzene"], "SMILES": "N(=O)(=O)C1=CC=C(C=C1)C2=CC=CC=C2", "physical_data": {"Molecular Weight": "199.21", "Molecular Formula": "C12H9NO2", "Boiling Point": "340 \u00b0C @ Press: 760 Torr", "Melting Point": "114 \u00b0C"}}