{"cas_no": "92-95-5", "cn_name": "4-\u8054\u82ef\u5f02\u6c30\u9178\u76d0", "en_name": ["4-Isocyanato-1,1\u2032-biphenyl", "1,1\u2032-Biphenyl, 4-isocyanato-", "Isocyanic acid, 4-biphenylyl ester", "Biphenyl, 4-isocyanato-", "4-Isocyanato-1,1\u2032-biphenyl", "4-Biphenyl isocyanate", "4-Biphenylyl isocyanate", "p-Diphenyl isocyanate", "p-Phenylphenyl isocyanate", "4-Phenylphenyl isocyanate", "4-Isocyanatobiphenyl", "1-Isocyanato-4-phenylbenzene"], "SMILES": "N(=C=O)C1=CC=C(C=C1)C2=CC=CC=C2", "physical_data": {"Molecular Weight": "195.22", "Molecular Formula": "C13H9NO", "Boiling Point": "283 \u00b0C", "Melting Point": "56 \u00b0C"}}