{"cas_no": "92-99-9", "cn_name": "N,N,2-\u4e09\u7532\u57fa\u55b9\u5549-6-\u80fa", "en_name": ["N,N,2-Trimethyl-6-quinolinamine", "6-Quinolinamine, N,N,2-trimethyl-", "Quinaldine, 6-(dimethylamino)-", "N,N,2-Trimethyl-6-quinolinamine", "6-(Dimethylamino)quinaldine", "6-Dimethylamino-2-methylquinoline", "NSC 9357"], "SMILES": "N(C)(C)C1=CC2=C(N=C(C)C=C2)C=C1", "physical_data": {"Molecular Weight": "186.25", "Molecular Formula": "C12H14N2", "Boiling Point": "319 \u00b0C", "Melting Point": "101 \u00b0C"}}