{"cas_no": "920-68-3", "cn_name": "\u4e03\u7532\u57fa\u4e8c\u7845\u6c2e\u70f7", "en_name": ["N,1,1,1-Tetramethyl-N-(trimethylsilyl)silanamine", "Silanamine, N,1,1,1-tetramethyl-N-(trimethylsilyl)-", "Disilazane, heptamethyl-", "N,1,1,1-Tetramethyl-N-(trimethylsilyl)silanamine", "Heptamethyldisilazane", "Methylbis(trimethylsilyl)amine", "N,N-Bis(trimethylsilyl)methylamine", "Di(trimethylsilyl)methylamine"], "SMILES": "N([Si](C)(C)C)([Si](C)(C)C)C", "physical_data": {"Molecular Weight": "175.42", "Molecular Formula": "C7H21NSi2", "Boiling Point": "143-147 \u00b0C", "Density": "0.7864 g/cm\u00b3"}}