{"cas_no": "920-46-7", "cn_name": "\u7532\u57fa\u4e19\u70ef\u9170\u6c2f", "en_name": ["Methacryloyl chloride", "2-Propenoyl chloride, 2-methyl-", "Methacryloyl chloride", "2-Methyl-2-propenoyl chloride", "Methacrylyl chloride", "Methacrylic acid chloride", "Methacrylic chloride", "\u03b1-Methylacryloyl chloride", "2-Methylpropenoic acid chloride", "2-Methylacryloyl chloride"], "SMILES": "C(C(Cl)=O)(C)=C", "physical_data": {"Molecular Weight": "104.53", "Molecular Formula": "C4H5ClO", "Boiling Point": "96 \u00b0C", "Melting Point": "-60 \u00b0C", "Density": "1.0871 g/cm\u00b3 @ Temp: 20 \u00b0C"}}