{"cas_no": "920-42-3", "cn_name": "\u8681\u9178-d2", "en_name": ["Formic-d acid-d", "Formic-d acid-d", "Perdeuterioformic acid", "Formic acid-d2"], "SMILES": "C(O)(=O)[2H]", "physical_data": {"Molecular Weight": "", "Molecular Formula": "CD2O2", "Boiling Point": "44-44.5 \u00b0C @ Press: 58 Torr"}}