{"cas_no": "920-39-8", "cn_name": "\u5f02\u4e19\u57fa\u6eb4\u5316\u9541", "en_name": ["Bromo(1-methylethyl)magnesium", "Magnesium, bromo(1-methylethyl)-", "Magnesium, bromoisopropyl-", "Isopropylmagnesium bromide", "Magnesium, isopropyl-, bromide", "Bromo(1-methylethyl)magnesium", "Bromoisopropylmagnesium", "1-Methylethylmagnesium bromide", "iso-Propylmagnesium bromide", "2-Propylmagnesium bromide"], "SMILES": "C([Mg]Br)(C)C", "physical_data": {"Molecular Weight": "", "Molecular Formula": "C3H7BrMg", "Boiling Point": "117-119 \u00b0C @ Press: 0.2 Torr", "Melting Point": "86.5-87 \u00b0C"}}