{"cas_no": "920-37-6", "cn_name": "2-\u6c2f\u4e19\u70ef\u8148", "en_name": ["2-Chloroacrylonitrile", "2-Propenenitrile, 2-chloro-", "Acrylonitrile, 2-chloro-", "2-Chloro-2-propenenitrile", "\u03b1-Chloroacrylonitrile", "1-Chloro-1-cyanoethene", "1-Chloro-1-cyanoethylene", "2-Chloroacrylonitrile", "1-Cyano-1-chloroethene", "1-Cyanovinyl chloride", "2-Chloropropenenitrile", "NSC 511714"], "SMILES": "C(C#N)(=C)Cl", "physical_data": {"Molecular Weight": "87.51", "Molecular Formula": "C3H2ClN", "Boiling Point": "88.5 \u00b0C", "Melting Point": "-65 \u00b0C", "Density": "1.08 g/cm\u00b3 @ Temp: 20 \u00b0C"}}