{"cas_no": "920-66-1", "cn_name": "\u516d\u6c1f\u5f02\u4e19\u9187", "en_name": ["1,1,1,3,3,3-Hexafluoro-2-propanol", "2-Propanol, 1,1,1,3,3,3-hexafluoro-", "1,1,1,3,3,3-Hexafluoro-2-propanol", "Hexafluoroisopropanol", "1,1,1,3,3,3-Hexafluoroisopropyl alcohol", "Hexafluoroisopropyl alcohol", "Bis(trifluoromethyl)methanol", "2,2,2-Trifluoro-1-(trifluoromethyl)ethanol", "1,1,1,3,3,3-Hexafluoroisopropanol", "1,1,1,3,3,3-Hexafluoro-2-hydroxypropane", "NSC 96336", "HFIP", "1,1,1,3,3,3-Hexafluoropropanol", "1,1,1,3,3,3-Hexafluoropropane-2-ol"], "SMILES": "C(C(F)(F)F)(C(F)(F)F)O", "physical_data": {"Molecular Weight": "168.04", "Molecular Formula": "C3H2F6O", "Boiling Point": "59 \u00b0C", "Melting Point": "-4 \u00b0C", "Density": "1.4563 g/cm\u00b3 @ Temp: 20.5 \u00b0C"}}