{"cas_no": "921-03-9", "cn_name": "1,1,3-\u4e09\u6c2f\u4e19\u916e", "en_name": ["1,1,3-Trichloroacetone", "2-Propanone, 1,1,3-trichloro-", "1,1,3-Trichloro-2-propanone", "\u03b1,\u03b1\u2032,\u03b1\u2032-Trichloroacetone", "1,1,3-Trichloroacetone", "1,1,2-Trichloroacetone"], "SMILES": "C(C(Cl)Cl)(CCl)=O", "physical_data": {"Molecular Weight": "161.41", "Molecular Formula": "C3H3Cl3O", "Boiling Point": "172 \u00b0C"}}