{"cas_no": "921-60-8", "cn_name": "L-\u8461\u8404\u7cd6", "en_name": ["L-Glucose", "L-Glucose", "L(-)-Glucose", "FM 602", "Levoglucose"], "SMILES": "C(C(C(C=O)O)O)(C(CO)O)O", "physical_data": {"Molecular Weight": "180.16", "Molecular Formula": "C6H12O6", "Melting Point": "144-146 \u00b0C"}}