{"cas_no": "92118-27-9", "cn_name": "\u798f\u83ab\u53f8\u6c40", "en_name": ["Fotemustine", "Phosphonic acid, P-[1-[[[(2-chloroethyl)nitrosoamino]carbonyl]amino]ethyl]-, diethyl ester", "Phosphonic acid, [1-[[[(2-chloroethyl)nitrosoamino]carbonyl]amino]ethyl]-, diethyl ester", "Fotemustine", "Muphoran", "S 10036", "Mustophorane", "1-(2-Chloroethyl)-3-(1-diethoxyphosphorylethyl)-1-nitrosourea"], "SMILES": "P(C(NC(N(CCCl)N=O)=O)C)(OCC)(OCC)=O", "physical_data": {"Molecular Weight": "315.69", "Molecular Formula": "C9H19ClN3O5P", "Melting Point": "85 \u00b0C"}}