{"cas_no": "921205-03-0", "cn_name": "3,3'-[5'-[3-(3-\u5421\u5576\u57fa)\u82ef\u57fa][1,1':3',1''-\u4e09\u8054\u82ef]-3,3''-\u4e8c\u57fa]\u4e8c\u5421\u5576", "en_name": ["1,3,5-Tri(m-pyrid-3-ylphenyl)benzene", "Pyridine, 3,3\u2032-[5\u2032-[3-(3-pyridinyl)phenyl][1,1\u2032:3\u2032,1\u2032\u2032-terphenyl]-3,3\u2032\u2032-diyl]bis-", "3,3\u2032-[5\u2032-[3-(3-Pyridinyl)phenyl][1,1\u2032:3\u2032,1\u2032\u2032-terphenyl]-3,3\u2032\u2032-diyl]bis[pyridine]", "1,3,5-Tri(m-pyridin-3-ylphenyl)benzenee", "1,3,5-Tri(m-pyrid-3-ylphenyl)benzene", "1,3,5-Tris(3-pyridyl-3-phenyl)benzene", "TmPyPB", "Tm3PyPB", "1,3,5-Tri(m-pyridin-3-ylphenyl)benzene", "1,3,5-Tris(m-pyridin-3-ylphenyl)benzene", "3,3\u2032\u2032-Bis-(3-pyridinyl)-5\u2032-(3-(3-pyridinyl)phenyl)-1,1\u2032:3\u2032,1\u2032\u2032-Terphenyl"], "SMILES": "C1(=CC(=CC(=C1)C2=CC(=CC=C2)C=3C=CC=NC3)C4=CC(=CC=C4)C=5C=CC=NC5)C6=CC(=CC=C6)C=7C=CC=NC7", "physical_data": {"Molecular Weight": "537.65", "Molecular Formula": "C39H27N3", "Melting Point": "181 \u00b0C"}}