{"cas_no": "92138-10-8", "cn_name": "(Z)-3-[(AMINOIMINOMETHYL)THIO]PROP-2-ENOIC ACID SULFATE", "en_name": ["(2Z)-3-[(Aminoiminomethyl)thio]-2-propenoic acid", "2-Propenoic acid, 3-[(aminoiminomethyl)thio]-, (2Z)-", "2-Propenoic acid, 3-[(aminoiminomethyl)thio]-, (Z)-", "(2Z)-3-[(Aminoiminomethyl)thio]-2-propenoic acid"], "SMILES": "C(=CC(O)=O)SC(=N)N", "physical_data": {"Molecular Weight": "146.17", "Molecular Formula": "C4H6N2O2S", "Melting Point": "164 \u00b0C (decomp)"}}