{"cas_no": "922-67-8", "cn_name": "\u4e19\u7094\u9178\u7532\u916f", "en_name": ["Methyl propiolate", "2-Propynoic acid, methyl ester", "Propiolic acid, methyl ester", "Methyl propiolate", "Methyl acetylenecarboxylate", "Methyl propynoate", "Methyl ethynecarboxylate", "(Methoxycarbonyl)acetylene", "Methyl 2-propynoate", "Methyl propargylate", "(Carbomethoxy)acetylene", "Methyl acetylenemonocarboxylate", "Propynoic acid methyl ester", "NSC 154164"], "SMILES": "C(C#C)(OC)=O", "physical_data": {"Molecular Weight": "84.07", "Molecular Formula": "C4H4O2", "Boiling Point": "102 \u00b0C @ Press: 742 Torr"}}