{"cas_no": "922-62-3", "cn_name": "\u987a-3-\u7532\u57fa-2-\u620a\u70ef", "en_name": ["cis-3-Methyl-2-pentene", "2-Pentene, 3-methyl-, (2Z)-", "2-Pentene, 3-methyl-, (Z)-", "(2Z)-3-Methyl-2-pentene", "cis-3-Methyl-2-pentene", "(Z)-3-Methyl-2-pentene"], "SMILES": "C(CC)(=CC)C", "physical_data": {"Molecular Weight": "84.16", "Molecular Formula": "C6H12", "Boiling Point": "67.7 \u00b0C", "Melting Point": "-134.8 \u00b0C"}}