{"cas_no": "922-66-7", "cn_name": "\u4ef2\u4e01\u57fa\u6eb4\u5316\u9541", "en_name": ["Bromo(1-methylpropyl)magnesium", "Magnesium, bromo(1-methylpropyl)-", "Magnesium, bromo-sec-butyl-", "sec-Butylmagnesium bromide", "Bromo(1-methylpropyl)magnesium", "Bromo-sec-butylmagnesium", "1-Methylpropylmagnesium bromide", "2-Butylmagnesium bromide"], "SMILES": "C(CC)([Mg]Br)C", "physical_data": {"Molecular Weight": "", "Molecular Formula": "C4H9BrMg", "Boiling Point": "122-124 \u00b0C @ Press: 0.2 Torr", "Melting Point": "64.5-65 \u00b0C"}}