{"cas_no": "922-65-6", "cn_name": "1,4-\u620a\u4e8c\u70ef-3-\u9187", "en_name": ["1,4-Pentadien-3-ol", "1,4-Pentadien-3-ol", "Divinylcarbinol", "Diethenylmethyl alcohol", "3-Hydroxy-1,4-pentadiene", "Divinylmethanol"], "SMILES": "C(C=C)(C=C)O", "physical_data": {"Molecular Weight": "84.12", "Molecular Formula": "C5H8O", "Boiling Point": "115.5 \u00b0C", "Density": "0.8648 g/cm\u00b3 @ Temp: 19 \u00b0C"}}