{"cas_no": "922-61-2", "cn_name": "3-\u7532\u57fa-2-\u620a\u70ef", "en_name": ["3-Methyl-2-pentene", "2-Pentene, 3-methyl-", "3-Methyl-2-pentene", "1,2,3-Trimethylpropene", "2-Ethyl-2-butene"], "SMILES": "C(CC)(=CC)C", "physical_data": {"Molecular Weight": "84.16", "Molecular Formula": "C6H12", "Boiling Point": "69 \u00b0C", "Density": "0.7158 g/cm\u00b3 @ Temp: 0 \u00b0C"}}