{"cas_no": "922-15-6", "cn_name": "2-(\u6c2f\u7532\u57fa)\u4e19\u70ef\u9178\u7532\u916f", "en_name": ["Methyl 2-(chloromethyl)-2-propenoate", "2-Propenoic acid, 2-(chloromethyl)-, methyl ester", "Acrylic acid, 2-(chloromethyl)-, methyl ester", "Methyl 2-(chloromethyl)-2-propenoate", "Methyl 2-(chloromethyl)acrylate", "Methyl \u03b1-(chloromethyl)acrylate"], "SMILES": "C(C(OC)=O)(CCl)=C", "physical_data": {"Molecular Weight": "134.56", "Molecular Formula": "C5H7ClO2", "Boiling Point": "57-58 \u00b0C @ Press: 13 Torr", "Density": "1.1899 g/cm\u00b3 @ Temp: 20 \u00b0C"}}