{"cas_no": "922-68-9", "cn_name": "\u4e59\u919b\u9178\u7532\u916f", "en_name": ["Methyl glyoxylate", "Acetic acid, 2-oxo-, methyl ester", "Glyoxylic acid, methyl ester", "Acetic acid, oxo-, methyl ester", "Oxoacetic acid methyl ester", "Methyl oxoacetate", "Methyl glyoxylate", "Methyl 2-oxoacetate"], "SMILES": "C(C=O)(OC)=O", "physical_data": {"Molecular Weight": "88.06", "Molecular Formula": "C3H4O3", "Boiling Point": "45-50 \u00b0C @ Press: 29 Torr", "Melting Point": "49-51 \u00b0C"}}