{"cas_no": "922-28-1", "cn_name": "3,4-\u4e8c\u7532\u57fa\u5e9a\u70f7", "en_name": ["3,4-Dimethylheptane", "Heptane, 3,4-dimethyl-", "3,4-Dimethylheptane", "NSC 158678"], "SMILES": "C(C(CC)C)(CCC)C", "physical_data": {"Molecular Weight": "128.26", "Molecular Formula": "C9H20", "Boiling Point": "140.6 \u00b0C", "Density": "0.7314 g/cm\u00b3 @ Temp: 20 \u00b0C"}}