{"cas_no": "922-63-4", "cn_name": "2-\u4e59\u57fa\u4e19\u70ef\u919b", "en_name": ["Ethylacrolein", "Butanal, 2-methylene-", "Butyraldehyde, 2-methylene-", "2-Methylenebutanal", "Ethylacrolein", "\u03b1-Ethylacrolein", "2-Ethyl-2-propenal", "Ethacrolein", "\u03b1-Ethylacrylaldehyde", "2-Ethylacrolein", "2-Ethylpropenal", "2-Formyl-1-butene", "2-Methylenebutyraldehyde", "2-Methylidenebutanal"], "SMILES": "C(CC)(C=O)=C", "physical_data": {"Molecular Weight": "84.12", "Molecular Formula": "C5H8O", "Boiling Point": "92.5 \u00b0C", "Density": "0.849 g/cm\u00b3 @ Temp: 20 \u00b0C"}}