{"cas_no": "923-32-0", "cn_name": "DL-\u80f1\u6c28\u9178", "en_name": ["Cystine", "Cystine", "Cystine, DL-", "DL-Cystine", "NSC 203781", "2-Amino-3-[(2-amino-2-carboxyethyl)disulfanyl]propanoic acid"], "SMILES": "C(CSSCC(C(O)=O)N)(C(O)=O)N", "physical_data": {"Molecular Weight": "240.30", "Molecular Formula": "C6H12N2O4S2", "Melting Point": "240 \u00b0C (decomp)"}}