{"cas_no": "923-37-5", "cn_name": "\u6c28\u57fa\u7532\u9170-DL-\u5929(\u95e8)\u51ac\u6c28\u9178", "en_name": ["Ureidosuccinic acid", "Aspartic acid, N-(aminocarbonyl)-", "Aspartic acid, N-carbamoyl-, DL-", "DL-Aspartic acid, N-(aminocarbonyl)-", "Aspartic acid, N-carbamoyl-", "N-(Aminocarbonyl)aspartic acid", "DL-2-Ureidobutanedioic acid", "Carbamyl-DL-aspartic acid", "Ureidosuccinic acid", "N-Carbamoyl-DL-aspartic acid", "NSC 120033", "2-Ureidosuccinic acid", "2-(Carbamoylamino)butanedioic acid"], "SMILES": "C(CC(O)=O)(NC(N)=O)C(O)=O", "physical_data": {"Molecular Weight": "176.13", "Molecular Formula": "C5H8N2O5", "Melting Point": "178-180 \u00b0C", "Density": "1.65 g/cm\u00b3"}}