{"cas_no": "923-02-4", "cn_name": "N-(\u7f9f\u7532\u57fa)-2-\u7532\u57fa-2-\u4e19\u70ef\u9170\u80fa", "en_name": ["Methylolmethacrylamide", "2-Propenamide, N-(hydroxymethyl)-2-methyl-", "Acrylamide, N-(hydroxymethyl)-2-methyl-", "N-(Hydroxymethyl)-2-methyl-2-propenamide", "N-Methylolmethacrylamide", "Methylolmethacrylamide", "N-(Hydroxymethyl)methacrylamide", "NSC 2691", "(Hydroxymethyl)methacrylamide"], "SMILES": "C(NCO)(C(C)=C)=O", "physical_data": {"Molecular Weight": "115.13", "Molecular Formula": "C5H9NO2", "Melting Point": "53.5-54 \u00b0C"}}