{"cas_no": "923-27-3", "cn_name": "D-\u8d56\u6c28\u9178", "en_name": ["D-Lysine", "D-Lysine", "Lysine, D-", "(R)-Lysine", "(R)-2,6-Diaminohexanoic acid", "(2R)-2,6-Diaminohexanoic acid"], "SMILES": "C(CCCCN)(C(O)=O)N", "physical_data": {"Molecular Weight": "146.19", "Molecular Formula": "C6H14N2O2", "Melting Point": "224 \u00b0C"}}