{"cas_no": "923-61-5", "cn_name": "L-\u78f7\u8102\u9170\u4e59\u9187\u80fa", "en_name": ["1,2-Dipalmitoyl-sn-glycero-3-phosphoethanolamine", "Hexadecanoic acid, 1,1\u2032-[(1R)-1-[[[(2-aminoethoxy)hydroxyphosphinyl]oxy]methyl]-1,2-ethanediyl] ester", "Palmitin, 1,2-di-, 2-aminoethyl hydrogen phosphate, L-", "Hexadecanoic acid, 1-[[[(2-aminoethoxy)hydroxyphosphinyl]oxy]methyl]-1,2-ethanediyl ester, (R)-", "Hexadecanoic acid, (1R)-1-[[[(2-aminoethoxy)hydroxyphosphinyl]oxy]methyl]-1,2-ethanediyl ester", "Dipalmitoyl-L-\u03b1-cephalin", "1,2-Dipalmitoyl-L-3-phosphatidylethanolamine", "1,2-Dipalmitoylglycerophosphorylethanolamine", "Dipalmitoyl-L-\u03b1-phosphatidylethanolamine", "1,2-Dipalmitoyl-sn-glycero-3-phosphoethanolamine", "L-\u03b2,\u03b3-Dipalmitoyl-\u03b1-phosphatidylethanolamine", "1,2-Dipalmitoyl-sn-glycerol-3-phosphoethanolamine", "L-\u03b1-Dipalmitoylphosphatidylethanolamine", "1,2-Dipalmitoyl-3-sn-phosphatidylethanolamine", "1,2-Dihexadecanoyl-sn-glycerol-3-phosphorylethanolamine", "sn-1,2-dipalmitoylglycerophosphoethanolamine", "1,2-Dipalmitoyl-sn-glycerol-3-L-\u03b1-phosphorylethanolamine", "1,2-Dipalmitoyl-L-\u03b1-phosphatidylethanolamine", "1,2-Dipalmitoyl-sn-glycerophosphoethanolamine", "1,2-Dipalmitoyl-sn-glycerol-3-phosphorylethanolamine", "1,2-Dipalmitoyl-sn-glycero-3-phosphatidylethanolamine", "1,2-Dipalmitoyl-sn-glycero-3-phosphatidylethanolamine", "(R)-Dipalmitoylphosphatidylethanolamine", "DPPE", "Coatsome ME 6060", "DHPE", "1,2-Dipalmitoyl-sn-glycerol-3-phosphatidylethanolamine", "2-Azaniumylethyl [(2R)-2,3-di(hexadecanoyloxy)propyl] phosphate"], "SMILES": "C(OC(CCCCCCCCCCCCCCC)=O)(COC(CCCCCCCCCCCCCCC)=O)COP(OCCN)(=O)O", "physical_data": {"Molecular Weight": "691.96", "Molecular Formula": "C37H74NO8P", "Melting Point": "190-191 \u00b0C"}}