{"cas_no": "923-42-2", "cn_name": "1,2,4-\u4e01\u70f7\u4e09\u7fa7\u9178", "en_name": ["1,2,4-Butanetricarboxylic acid", "1,2,4-Butanetricarboxylic acid", "Hexanedioic acid, 3-carboxy-", "Pentanedioic acid, 2-(carboxymethyl)-", "1,2,4-Tricarboxybutane", "NSC 60127", "NSC 8447", "3-Carboxyhexanedioic acid"], "SMILES": "C(CCC(O)=O)(CC(O)=O)C(O)=O", "physical_data": {"Molecular Weight": "190.15", "Molecular Formula": "C7H10O6", "Boiling Point": "116-117 \u00b0C @ Press: 1 Torr", "Melting Point": "116-118 \u00b0C"}}