{"cas_no": "923-16-0", "cn_name": "D-\u4e19\u6c28\u9170-D-\u4e19\u6c28\u9178", "en_name": ["D-Alanyl-D-alanine", "D-Alanine, D-alanyl-", "Alanine, N-D-alanyl-, D-", "D-Alanine, N-D-alanyl-", "D-Alanyl-D-alanine", "H-D-Ala-D-Ala-OH", "N-[D-Alaninyl]-D-alanine"], "SMILES": "C(NC(C(C)N)=O)(C(O)=O)C", "physical_data": {"Molecular Weight": "160.17", "Molecular Formula": "C6H12N2O3", "Melting Point": "120 \u00b0C"}}