{"cas_no": "923-26-2", "cn_name": "\u7532\u57fa\u4e19\u70ef\u91782-\u7f9f\u57fa\u4e19\u916f", "en_name": ["2-Hydroxypropyl methacrylate", "2-Propenoic acid, 2-methyl-, 2-hydroxypropyl ester", "Methacrylic acid, 2-hydroxypropyl ester", "1,2-Propanediol, 1-methacrylate", "2-Hydroxypropyl methacrylate", "\u03b2-Hydroxypropyl methacrylate", "Acryester HP", "Light Ester HOP", "Blemmer P", "Light ester HOP-N", "2-Hydroxypropyl 2-methylprop-2-enoate"], "SMILES": "C(OCC(C)O)(C(C)=C)=O", "physical_data": {"Molecular Weight": "144.17", "Molecular Formula": "C7H12O3", "Boiling Point": "90 \u00b0C", "Melting Point": "82-84 \u00b0C"}}