{"cas_no": "923289-30-9", "cn_name": "1-(2-\u6c28\u57fa-3-\u6eb4-4-\u7532\u6c27\u57fa\u82ef\u57fa)\u4e59\u916e", "en_name": ["1-(2-Amino-3-bromo-4-methoxyphenyl)ethanone", "Ethanone, 1-(2-amino-3-bromo-4-methoxyphenyl)-", "1-(2-Amino-3-bromo-4-methoxyphenyl)ethanone", "1-(2-Amino-3-bromo-4-methoxyphenyl)ethan-1-one"], "SMILES": "C(C)(=O)C1=C(N)C(Br)=C(OC)C=C1", "physical_data": {"Molecular Weight": "244.09", "Molecular Formula": "C9H10BrNO2", "Melting Point": "95-96 \u00b0C"}}