{"cas_no": "92340-57-3", "cn_name": "5-\u7f9f\u57fa\u5965\u7f8e\u62c9\u5511", "en_name": ["Hydroxyomeprazole", "3-Pyridinemethanol, 4-methoxy-6-[[(6-methoxy-1H-benzimidazol-2-yl)sulfinyl]methyl]-5-methyl-", "3-Pyridinemethanol, 4-methoxy-6-[[(5-methoxy-1H-benzimidazol-2-yl)sulfinyl]methyl]-5-methyl-", "4-Methoxy-6-[[(6-methoxy-1H-benzimidazol-2-yl)sulfinyl]methyl]-5-methyl-3-pyridinemethanol", "Hydroxyomeprazole", "5-Hydroxyomeprazole", "5-Methoxy-2-[[(4-methoxy-3-methyl-5-hydroxymethyl-2-pyridinyl)methyl]sulfinyl]-1H-benzimidazole"], "SMILES": "S(CC1=C(C)C(OC)=C(CO)C=N1)(=O)C=2NC=3C(N2)=CC(OC)=CC3", "physical_data": {"Molecular Weight": "361.42", "Molecular Formula": "C17H19N3O4S", "Melting Point": "136-138 \u00b0C"}}