{"cas_no": "923590-37-8", "cn_name": "\u4f10\u5c3c\u745e\u97e6", "en_name": ["Vaniprevir", "Cyclopropanecarboxamide, N-[[[6-(2-carboxy-2,3-dihydro-1H-isoindol-4-yl)-2,2-dimethylhexyl]oxy]carbonyl]-3-methyl-L-valyl-(4R)-4-hydroxy-L-prolyl-1-amino-N-(cyclopropylsulfonyl)-2-ethyl-, (1\u21922)-lactone, (1R,2R)-", "MK 7009", "Vaniprevir", "Vanihep"], "SMILES": "N(C(=O)C1N2CC(C1)OC(=O)N3CC=4C(C3)=CC=CC4CCCCC(C)(C)COC(=O)NC(C(C)(C)C)C2=O)C5(C(NS(=O)(=O)C6CC6)=O)C(CC)C5", "physical_data": {"Molecular Weight": "757.94", "Molecular Formula": "C38H55N5O9S", "Melting Point": "175-177 \u00b0C"}}