{"cas_no": "923565-21-3", "cn_name": "GSK 962040", "en_name": ["1-[4-[(3-Fluorophenyl)amino]-1-piperidinyl]-2-[4-[[(3S)-3-methyl-1-piperazinyl]methyl]phenyl]ethanone", "Ethanone, 1-[4-[(3-fluorophenyl)amino]-1-piperidinyl]-2-[4-[[(3S)-3-methyl-1-piperazinyl]methyl]phenyl]-", "1-[4-[(3-Fluorophenyl)amino]-1-piperidinyl]-2-[4-[[(3S)-3-methyl-1-piperazinyl]methyl]phenyl]ethanone", "GSK 962040", "Camicinal", "GSK 962040B", "1-[4-(3-Fluoroanilino)piperidin-1-yl]-2-[4-[[(3S)-3-methylpiperazin-1-yl]methyl]phenyl]ethanone"], "SMILES": "C(CC1=CC=C(CN2CC(C)NCC2)C=C1)(=O)N3CCC(NC4=CC(F)=CC=C4)CC3", "physical_data": {"Molecular Weight": "424.55", "Molecular Formula": "C25H33FN4O", "Melting Point": "144 \u00b0C"}}