{"cas_no": "923604-59-5", "cn_name": "\u53f8\u7f8e\u5339\u97e6", "en_name": ["Simeprevir", "Cyclopenta[c]cyclopropa[g][1,6]diazacyclotetradecine-12a(1H)-carboxamide, N-(cyclopropylsulfonyl)-2,3,3a,4,5,6,7,8,9,11a,12,13,14,14a-tetradecahydro-2-[[7-methoxy-8-methyl-2-[4-(1-methylethyl)-2-thiazolyl]-4-quinolinyl]oxy]-5-methyl-4,14-dioxo-, (2R,3aR,10Z,11aS,12aR,14aR)-", "(2R,3aR,10Z,11aS,12aR,14aR)-N-(Cyclopropylsulfonyl)-2,3,3a,4,5,6,7,8,9,11a,12,13,14,14a-tetradecahydro-2-[[7-methoxy-8-methyl-2-[4-(1-methylethyl)-2-thiazolyl]-4-quinolinyl]oxy]-5-methyl-4,14-dioxocyclopenta[c]cyclopropa[g][1,6]diazacyclotetradecine-12a(1H)-carboxamide", "TMC 435350", "TMC 435", "Simeprevir", "Sovriad", "Olysio", "Merospevir", "MeSH ID: D000069616"], "SMILES": "C(NS(=O)(=O)C1CC1)(=O)C23C(C2)C=CCCCCN(C)C(=O)C4C(C(=O)N3)CC(OC=5C6=C(N=C(C5)C7=NC(C(C)C)=CS7)C(C)=C(OC)C=C6)C4", "physical_data": {"Molecular Weight": "749.94", "Molecular Formula": "C38H47N5O7S2", "Melting Point": "238-239.1 \u00b0C"}}