{"cas_no": "923978-27-2", "cn_name": "GFT505", "en_name": ["2-[2,6-Dimethyl-4-[(1E)-3-[4-(methylthio)phenyl]-3-oxo-1-propen-1-yl]phenoxy]-2-methylpropanoic acid", "Propanoic acid, 2-[2,6-dimethyl-4-[(1E)-3-[4-(methylthio)phenyl]-3-oxo-1-propen-1-yl]phenoxy]-2-methyl-", "2-[2,6-Dimethyl-4-[(1E)-3-[4-(methylthio)phenyl]-3-oxo-1-propen-1-yl]phenoxy]-2-methylpropanoic acid", "GFT 505", "Elafibranor", "GFT-505"], "SMILES": "O(C(C(O)=O)(C)C)C1=C(C)C=C(C=CC(=O)C2=CC=C(SC)C=C2)C=C1C", "physical_data": {"Molecular Weight": "384.49", "Molecular Formula": "C22H24O4S", "Melting Point": "145-147 \u00b0C"}}