{"cas_no": "924-44-7", "cn_name": "\u4e59\u919b\u9178\u4e59\u916f", "en_name": ["Ethyl glyoxylate", "Acetic acid, 2-oxo-, ethyl ester", "Glyoxylic acid, ethyl ester", "Acetic acid, oxo-, ethyl ester", "Ethyl glyoxylate", "Ethyl oxoacetate", "Oxoacetic acid ethyl ester", "NSC 49206", "Ethyl 2-oxoacetate", "Glyoxalic acid ethyl ester", "Formyl ethoxy ketone"], "SMILES": "C(OCC)(C=O)=O", "physical_data": {"Molecular Weight": "102.09", "Molecular Formula": "C4H6O3", "Boiling Point": "140-143 \u00b0C @ Press: 1.5 Torr", "Density": "1.094 g/cm\u00b3 @ Temp: 25 \u00b0C"}}