{"cas_no": "924-50-5", "cn_name": "3,3-\u4e8c\u7532\u57fa\u4e19\u70ef\u9178\u7532\u916f", "en_name": ["Methyl 3-methyl-2-butenoate", "2-Butenoic acid, 3-methyl-, methyl ester", "Crotonic acid, 3-methyl-, methyl ester", "Senecioic acid, methyl ester", "Methyl 3-methylcrotonate", "Methyl 3-methyl-2-butenoate", "Methyl 3,3-dimethylacrylate", "Methyl 3,3-dimethacrylate", "Methyl senecioate", "Methyl \u03b2-methylcrotonate", "3-Methylcrotonic acid methyl ester", "Methyl dimethylacrylate", "Methyl \u03b2,\u03b2-dimethylacrylate", "3-Methyl-2-butenoic acid methyl ester"], "SMILES": "C(C=C(C)C)(OC)=O", "physical_data": {"Molecular Weight": "114.14", "Molecular Formula": "C6H10O2", "Boiling Point": "136.5 \u00b0C", "Density": "0.9094 g/cm\u00b3 @ Temp: 20 \u00b0C"}}