{"cas_no": "924-16-3", "cn_name": "N-\u4e9a\u785d\u57fa\u4e8c\u4e01\u80fa", "en_name": ["N-Nitrosodibutylamine", "1-Butanamine, N-butyl-N-nitroso-", "Dibutylamine, N-nitroso-", "N-Butyl-N-nitroso-1-butanamine", "Dibutylnitrosamine", "Di-n-butylnitrosamine", "N-Nitrosodibutylamine", "N,N-Dibutylnitrosamine", "N-Nitrosodi-n-butylamine", "Nitrosodibutylamine", "N,N-Di-n-butylnitrosamine", "N-Nitroso-N-di-n-butylamine", "NSC 6830", "NDBA", "N,N-Dibutylnitrous amide"], "SMILES": "N(CCCC)(CCCC)N=O", "physical_data": {"Molecular Weight": "158.24", "Molecular Formula": "C8H18N2O", "Boiling Point": "116 \u00b0C @ Press: 14 Torr", "Melting Point": "&lt;25 \u00b0C", "Density": "0.9009 g/cm\u00b3 @ Temp: 20 \u00b0C"}}