{"cas_no": "924-41-4", "cn_name": "1,5-\u5df1\u4e8c\u70ef-3-\u9187", "en_name": ["1,5-Hexadien-3-ol", "1,5-Hexadien-3-ol", "3-Hydroxy-1,5-hexadiene", "1,5-Hexadiene-3-ol", "NSC 102761"], "SMILES": "C(CC=C)(C=C)O", "physical_data": {"Molecular Weight": "98.14", "Molecular Formula": "C6H10O", "Boiling Point": "133.5 \u00b0C", "Density": "0.8596 g/cm\u00b3 @ Temp: 25 \u00b0C"}}