{"cas_no": "924-42-5", "cn_name": "N-\u7f9f\u7532\u57fa\u4e19\u70ef\u9170\u80fa", "en_name": ["N-Methylolacrylamide", "2-Propenamide, N-(hydroxymethyl)-", "Acrylamide, N-(hydroxymethyl)-", "N-(Hydroxymethyl)-2-propenamide", "N-Methylolacrylamide", "N-Methanolacrylamide", "N-(Hydroxymethyl)acrylamide", "Monomethylolacrylamide", "NMA 60", "MH 100 (amide)", "MH 100", "N-MAM P", "U-Ramin T 80", "Rocagil BT", "N-MAM", "NSC 553", "N-NBM", "Cylink NMA", "N-Methylol acrylamide", "NMA 48"], "SMILES": "C(NCO)(C=C)=O", "physical_data": {"Molecular Weight": "101.10", "Molecular Formula": "C4H7NO2", "Melting Point": "74.5 \u00b0C"}}