{"cas_no": "92440-76-1", "cn_name": "\u7532\u6c27\u82c4\u5576EP\u6742\u8d28D", "en_name": ["2-Amino-5-[(3,4,5-trimethoxyphenyl)methyl]-4(3H)-pyrimidinone", "4(3H)-Pyrimidinone, 2-amino-5-[(3,4,5-trimethoxyphenyl)methyl]-", "4-Pyrimidinol, 2-amino-5-(3,4,5-trimethoxybenzyl)-", "4(1H)-Pyrimidinone, 2-amino-5-[(3,4,5-trimethoxyphenyl)methyl]-", "2-Amino-5-[(3,4,5-trimethoxyphenyl)methyl]-4(3H)-pyrimidinone", "2-Amino-5-[(3,4,5-trimethoxyphenyl)methyl]-1H-pyrimidin-6-one"], "SMILES": "C(C1=CC(OC)=C(OC)C(OC)=C1)C=2C(=O)NC(N)=NC2", "physical_data": {"Molecular Weight": "291.30", "Molecular Formula": "C14H17N3O4", "Melting Point": "257-258 \u00b0C"}}