{"cas_no": "924663-38-7", "cn_name": "\u96f7\u8d1d\u62c9\u5511\u6742\u8d28A", "en_name": ["Rabeprazole N-oxide", "1H-Benzimidazole, 2-[[[4-(3-methoxypropoxy)-3-methyl-1-oxido-2-pyridinyl]methyl]sulfinyl]-", "2-[[[4-(3-Methoxypropoxy)-3-methyl-1-oxido-2-pyridinyl]methyl]sulfinyl]-1H-benzimidazole", "2-(((4-(3-Methoxypropoxy)-3-methyl-1-oxopyridin-2-yl)methyl)sulfinyl)-1H-benzimidazole", "Rabeprazole N-oxide", "2-(((4-(3-Methoxypropoxy)-3-methyl-2-pyridinyl-1-oxide)methyl)sulphinyl)-1H-benzimidazoleRabeprazole N-oxide", "2-[[4-(3-Methoxypropoxy)-3-methyl-1-oxidopyridin-1-ium-2-yl]methylsulfinyl]-1H-benzimidazole"], "SMILES": "S(CC1=C(C)C(OCCCOC)=CC=N1=O)(=O)C=2NC=3C(N2)=CC=CC3", "physical_data": {"Molecular Weight": "375.44", "Molecular Formula": "C18H21N3O4S", "Melting Point": "161-163 \u00b0C (decomp)"}}