{"cas_no": "924663-40-1", "cn_name": "\u786b\u5316\u96f7\u8d1d\u62c9\u5511N-\u6c27\u5316\u7269", "en_name": ["2-[[[4-(3-Methoxypropoxy)-3-methyl-1-oxido-2-pyridinyl]methyl]thio]-1H-benzimidazole", "1H-Benzimidazole, 2-[[[4-(3-methoxypropoxy)-3-methyl-1-oxido-2-pyridinyl]methyl]thio]-", "2-[[[4-(3-Methoxypropoxy)-3-methyl-1-oxido-2-pyridinyl]methyl]thio]-1H-benzimidazole", "2-[[[3-Methyl-4-(3-methoxypropoxy)-1-oxo-2-pyridinyl]methyl]sulfanyl]-1H-benzimidazole", "2-[[4-(3-Methoxypropoxy)-3-methyl-1-oxidopyridin-1-ium-2-yl]methylsulfanyl]-1H-benzimidazole"], "SMILES": "S(CC1=C(C)C(OCCCOC)=CC=N1=O)C=2NC=3C(N2)=CC=CC3", "physical_data": {"Molecular Weight": "359.44", "Molecular Formula": "C18H21N3O3S", "Melting Point": "149-150 \u00b0C"}}