{"cas_no": "92496-65-6", "cn_name": "3'-\u7f9f\u57fa\u9ec4\u70f7\u916e", "en_name": ["3\u2032-Hydroxyflavanone", "4H-1-Benzopyran-4-one, 2,3-dihydro-2-(3-hydroxyphenyl)-", "Flavanone, 3\u2032-hydroxy-", "2,3-Dihydro-2-(3-hydroxyphenyl)-4H-1-benzopyran-4-one", "3\u2032-Hydroxyflavanone", "2-(3-Hydroxyphenyl)chroman-4-one", "2-(3-Hydroxyphenyl)-3,4-dihydro-2H-1-benzopyran-4-one", "2-(3-Hydroxyphenyl)-2,3-dihydrochromen-4-one"], "SMILES": "O=C1CC(OC=2C1=CC=CC2)C3=CC(O)=CC=C3", "physical_data": {"Molecular Weight": "240.25", "Molecular Formula": "C15H12O3", "Melting Point": "143-144 \u00b0C"}}