{"cas_no": "925-78-0", "cn_name": "3-\u58ec\u916e", "en_name": ["3-Nonanone", "3-Nonanone", "Ethyl hexyl ketone", "n-Hexyl ethyl ketone"], "SMILES": "C(CCCCCC)(CC)=O", "physical_data": {"Molecular Weight": "142.24", "Molecular Formula": "C9H18O", "Boiling Point": "190 \u00b0C", "Melting Point": "-8 \u00b0C", "Density": "0.8215 g/cm\u00b3 @ Temp: 20 \u00b0C"}}