{"cas_no": "925-83-7", "cn_name": "\u7678\u4e8c\u9170\u80bc", "en_name": ["Decanedioic acid 1,10-dihydrazide", "Decanedioic acid, 1,10-dihydrazide", "Sebacic acid, dihydrazide", "Decanedioic acid, dihydrazide", "Decanedioic acid 1,10-dihydrazide", "Sebacic dihydrazide", "Sebacic acid hydrazide", "NSC 23709", "SDH-S", "SDH"], "SMILES": "C(CCCCCCCCC(NN)=O)(NN)=O", "physical_data": {"Molecular Weight": "230.31", "Molecular Formula": "C10H22N4O2", "Melting Point": "185 \u00b0C"}}