{"cas_no": "925-47-3", "cn_name": "2,2'-\u786b\u4ee3\u4e8c\u4e59\u9178\u4e8c\u4e59\u916f", "en_name": ["Diethyl thiodiglycolate", "Acetic acid, 2,2\u2032-thiobis-, 1,1\u2032-diethyl ester", "Acetic acid, thiodi-, diethyl ester", "Acetic acid, 2,2\u2032-thiobis-, diethyl ester", "Bis(carbethoxymethyl) sulfide", "Diethyl thiodiacetate", "Diethyl thiodiglycolate", "Diethyl 2,2\u2032-thiodiacetate", "NSC 12576"], "SMILES": "C(CSCC(OCC)=O)(OCC)=O", "physical_data": {"Molecular Weight": "206.26", "Molecular Formula": "C8H14O4S", "Boiling Point": "155-160 \u00b0C"}}