{"cas_no": "925-93-9", "cn_name": "\u4e59\u9187-D1", "en_name": ["Ethanol-d", "Ethanol-d", "Ethyl alcohol-d", "Ethanol (C2H5OD)", "Ethanol-d1", "Ethanol-d1"], "SMILES": "C(C)O[2H]", "physical_data": {"Molecular Weight": "", "Molecular Formula": "C2H5DO", "Boiling Point": "78.8 \u00b0C", "Density": "0.801 g/cm\u00b3 @ Temp: 25 \u00b0C"}}