{"cas_no": "925-60-0", "cn_name": "\u4e19\u70ef\u9178\u4e19\u916f", "en_name": ["Propyl acrylate", "2-Propenoic acid, propyl ester", "Acrylic acid, propyl ester", "Propyl acrylate", "Propyl 2-propenoate", "NSC 32620"], "SMILES": "C(OCCC)(C=C)=O", "physical_data": {"Molecular Weight": "114.14", "Molecular Formula": "C6H10O2", "Boiling Point": "121 \u00b0C @ Press: 800 Torr"}}