{"cas_no": "925-90-6", "cn_name": "\u4e59\u57fa\u6eb4\u5316\u9541", "en_name": ["Ethylmagnesium bromide", "Magnesium, bromoethyl-", "Ethylmagnesium bromide", "Bromoethylmagnesium"], "SMILES": "C([Mg]Br)C", "physical_data": {"Molecular Weight": "", "Molecular Formula": "C2H5BrMg", "Boiling Point": "57-75 \u00b0C @ Press: 43 Torr", "Melting Point": "72.4-73.8 \u00b0C"}}