{"cas_no": "925-15-5", "cn_name": "\u4e01\u4e8c\u9178\u4e8c\u4e19\u916f", "en_name": ["Dipropyl succinate", "Butanedioic acid, 1,4-dipropyl ester", "Succinic acid, dipropyl ester", "Butanedioic acid, dipropyl ester", "Di-n-propyl succinate", "Dipropyl succinate"], "SMILES": "C(CCC(OCCC)=O)(OCCC)=O", "physical_data": {"Molecular Weight": "202.25", "Molecular Formula": "C10H18O4", "Boiling Point": "250.8 \u00b0C", "Melting Point": "-5.9 \u00b0C"}}