{"cas_no": "925-06-4", "cn_name": "\u4e01\u4e8c\u9178\u4e8c\u5f02\u4e01\u916f", "en_name": ["Diisobutyl succinate", "Butanedioic acid, 1,4-bis(2-methylpropyl) ester", "Succinic acid, diisobutyl ester", "Butanedioic acid, bis(2-methylpropyl) ester", "Diisobutyl succinate"], "SMILES": "C(CCC(OCC(C)C)=O)(OCC(C)C)=O", "physical_data": {"Molecular Weight": "230.30", "Molecular Formula": "C12H22O4", "Boiling Point": "216 \u00b0C", "Density": "0.967 g/cm\u00b3"}}