{"cas_no": "925434-55-5", "cn_name": "N-[2-[3-(1-\u54cc\u55ea\u57fa\u7532\u57fa)\u54aa\u5511\u5e76[2,1-B]\u567b\u5511-6-\u57fa]\u82ef\u57fa]-2-\u55b9\u5594\u5549\u7532\u9170\u80fa", "en_name": ["N-[2-[3-(1-Piperazinylmethyl)imidazo[2,1-b]thiazol-6-yl]phenyl]-2-quinoxalinecarboxamide", "2-Quinoxalinecarboxamide, N-[2-[3-(1-piperazinylmethyl)imidazo[2,1-b]thiazol-6-yl]phenyl]-", "N-[2-[3-(1-Piperazinylmethyl)imidazo[2,1-b]thiazol-6-yl]phenyl]-2-quinoxalinecarboxamide", "SRT 1720"], "SMILES": "C(C=1N2C(=NC(=C2)C3=C(NC(=O)C4=NC5=C(N=C4)C=CC=C5)C=CC=C3)SC1)N6CCNCC6", "physical_data": {"Molecular Weight": "469.56", "Molecular Formula": "C25H23N7OS", "Melting Point": "221.4 \u00b0C"}}