{"cas_no": "926-66-9", "cn_name": "2-\u4e59\u6c27\u57fa\u4e19\u70ef", "en_name": ["2-Ethoxy-1-propene", "1-Propene, 2-ethoxy-", "Ether, ethyl isopropenyl", "2-Ethoxy-1-propene", "Ethyl 1-methylvinyl ether", "Ethyl isopropenyl ether", "2-Ethoxypropene", "Isopropenyl ethyl ether"], "SMILES": "O(C(C)=C)CC", "physical_data": {"Molecular Weight": "86.13", "Molecular Formula": "C5H10O", "Boiling Point": "61.2-61.8 \u00b0C @ Press: 760 Torr", "Density": "0.7713 g/cm\u00b3 @ Temp: 20 \u00b0C"}}