{"cas_no": "926-64-7", "cn_name": "N,N-\u4e8c\u7532\u57fa\u6c28\u57fa\u4e59\u8148", "en_name": ["(Dimethylamino)acetonitrile", "Acetonitrile, 2-(dimethylamino)-", "Acetonitrile, (dimethylamino)-", "Glycinonitrile, N,N-dimethyl-", "2-(Dimethylamino)acetonitrile", "Dimethylcyanomethylamine", "N-(Cyanomethyl)dimethylamine", "(Dimethylamino)acetonitrile", "NSC 148364"], "SMILES": "C(N(C)C)C#N", "physical_data": {"Molecular Weight": "84.12", "Molecular Formula": "C4H8N2", "Boiling Point": "137.5 \u00b0C", "Melting Point": "135-138 \u00b0C"}}