{"cas_no": "926-77-2", "cn_name": "\u7518\u6c28\u9170\u4e19\u6c28\u9178", "en_name": ["Glycylalanine", "Alanine, glycyl-", "Alanine, N-glycyl-, DL-", "DL-Alanine, N-glycyl-", "Glycylalanine", "Glycyl-DL-alanine", "Gly-DL-Ala", "Glycyl-DL-\u03b1-alanine", "Glycyl-(RS)-alanine", "2-[(2-Azaniumylacetyl)amino]propanoate", "2-(2-Aminoacetamido)propanoic acid"], "SMILES": "N(C(C(O)=O)C)C(CN)=O", "physical_data": {"Molecular Weight": "146.14", "Molecular Formula": "C5H10N2O3", "Melting Point": "192 \u00b0C"}}