{"cas_no": "926-39-6", "cn_name": "2-\u6c28\u57fa\u4e59\u57fa\u786b\u9178\u6c22\u94a0", "en_name": ["2-Aminoethyl hydrogen sulfate", "Ethanol, 2-amino-, 1-(hydrogen sulfate)", "Ethanol, 2-amino-, hydrogen sulfate (ester)", "Ethanol, 2-amino-, hydrogen sulfate", "Ethanol, 2-amino-, sulfate", "Ethanolamine O-sulfate", "2-Aminoethyl hydrogen sulfate", "2-Aminoethyl sulfate", "2-Aminoethyl sulfuric acid", "Mono(2-aminoethyl) sulfate", "Ethanolamine sulfate", "2-Aminoethanol hydrogen sulfate (ester)", "WAS-34", "NSC 204188", "NSC 3532", "(2-Aminoethoxy)sulfonic acid", "2-Azaniumylethyl sulfate"], "SMILES": "O(S(=O)(=O)O)CCN", "physical_data": {"Molecular Weight": "141.15", "Molecular Formula": "C2H7NO4S", "Melting Point": "162.5 \u00b0C (decomp)"}}