{"cas_no": "926-02-3", "cn_name": "\u53d4\u4e01\u57fa\u4e59\u70ef\u57fa\u919a", "en_name": ["2-(Ethenyloxy)-2-methylpropane", "Propane, 2-(ethenyloxy)-2-methyl-", "Ether, tert-butyl vinyl", "2-(Ethenyloxy)-2-methylpropane", "tert-Butyl vinyl ether", "tert-Butoxyethylene", "t-Butyl vinyl ether", "tert-Butoxyethene", "2-Methyl-2-(vinyloxy)propane", "2-Ethenoxy-2-methylpropane"], "SMILES": "O(C(C)(C)C)C=C", "physical_data": {"Molecular Weight": "100.16", "Molecular Formula": "C6H12O", "Boiling Point": "75 \u00b0C", "Melting Point": "-112 \u00b0C", "Density": "0.7726 g/cm\u00b3 @ Temp: 20 \u00b0C"}}