{"cas_no": "926-82-9", "cn_name": "3\uff0c5-\u4e8c\u7532\u57fa\u5e9a\u70f7", "en_name": ["3,5-Dimethylheptane", "Heptane, 3,5-dimethyl-", "3,5-Dimethylheptane"], "SMILES": "C(C(CC)C)C(CC)C", "physical_data": {"Molecular Weight": "128.26", "Molecular Formula": "C9H20", "Boiling Point": "136 \u00b0C", "Density": "0.7199 g/cm\u00b3 @ Temp: 420 \u00b0C"}}