{"cas_no": "926-06-7", "cn_name": "\u7532\u78fa\u9178\u5f02\u4e19\u916f", "en_name": ["Isopropyl methanesulfonate", "Methanesulfonic acid, 1-methylethyl ester", "Methanesulfonic acid, isopropyl ester", "Isopropyl methanesulphonate", "Isopropyl methanesulfonate", "Isopropyl mesylate", "2-Propyl methanesulfonate"], "SMILES": "O(S(C)(=O)=O)C(C)C", "physical_data": {"Molecular Weight": "138.19", "Molecular Formula": "C4H10O3S", "Boiling Point": "30 \u00b0C @ Press: 0.02 Torr", "Melting Point": "5.5-6.5 \u00b0C", "Density": "1.145 g/cm\u00b3 @ Temp: 20 \u00b0C"}}