{"cas_no": "926-57-8", "cn_name": "1,3-\u4e8c\u6c2f-2-\u4e01\u70ef", "en_name": ["1,3-Dichloro-2-butene", "2-Butene, 1,3-dichloro-", "1,3-Dichloro-2-butene", "NSC 8749"], "SMILES": "C(=C(C)Cl)CCl", "physical_data": {"Molecular Weight": "125.00", "Molecular Formula": "C4H6Cl2", "Boiling Point": "131 \u00b0C", "Density": "1.161 g/cm\u00b3"}}