{"cas_no": "926-65-8", "cn_name": "\u5f02\u4e19\u57fa\u4e59\u70ef\u57fa\u919a", "en_name": ["Isopropyl vinyl ether", "Propane, 2-(ethenyloxy)-", "Ether, isopropyl vinyl", "2-(Ethenyloxy)propane", "Isopropyl vinyl ether", "Vinyl isopropyl ether", "Isopropoxyethylene", "Isopropoxyethene", "2-Ethenoxypropane"], "SMILES": "O(C(C)C)C=C", "physical_data": {"Molecular Weight": "86.13", "Molecular Formula": "C5H10O", "Boiling Point": "55.5 \u00b0C", "Melting Point": "-140 \u00b0C", "Density": "0.7560 g/cm\u00b3 @ Temp: 20 \u00b0C"}}