{"cas_no": "926-63-6", "cn_name": "N,N-\u4e8c\u7532\u57fa\u4e19\u80fa", "en_name": ["Dimethylpropylamine", "1-Propanamine, N,N-dimethyl-", "Propylamine, N,N-dimethyl-", "N,N-Dimethyl-1-propanamine", "Dimethylpropylamine", "N,N-Dimethyl-n-propylamine", "N,N-Dimethylpropylamine", "Propyldimethylamine", "Dimethylammonium propane", "N,N-Dimethylpropanamine", "1-Dimethylaminopropane", "Catalyst 706", "Katalysator 706"], "SMILES": "C(N(C)C)CC", "physical_data": {"Molecular Weight": "87.16", "Molecular Formula": "C5H13N", "Boiling Point": "66 \u00b0C", "Density": "0.7833 g/cm\u00b3 @ Temp: 0 \u00b0C"}}