{"cas_no": "926-56-7", "cn_name": "4-\u7532\u57fa-1\uff0c3-\u620a\u4e8c\u70ef", "en_name": ["4-Methyl-1,3-pentadiene", "1,3-Pentadiene, 4-methyl-", "4-Methyl-1,3-pentadiene", "1,1-Dimethylbutadiene", "1,1-Dimethyl-1,3-butadiene", "2-Methyl-2,4-pentadiene"], "SMILES": "C(=C(C)C)C=C", "physical_data": {"Molecular Weight": "82.14", "Molecular Formula": "C6H10", "Boiling Point": "76.5 \u00b0C", "Density": "0.71814 g/cm\u00b3 @ Temp: 20 \u00b0C"}}