{"cas_no": "92623-83-1", "cn_name": "\u666e\u62c9\u6735\u6797", "en_name": ["Pravadoline", "Methanone, (4-methoxyphenyl)[2-methyl-1-[2-(4-morpholinyl)ethyl]-1H-indol-3-yl]-", "(4-Methoxyphenyl)[2-methyl-1-[2-(4-morpholinyl)ethyl]-1H-indol-3-yl]methanone", "Pravadoline", "WIN 48098", "(4-Methoxyphenyl)(2-methyl-1-(2-morpholinoethyl)-1H-indol-3-yl)methanone", "(4-Methoxyphenyl)-[2-methyl-1-(2-morpholin-4-ylethyl)indol-3-yl]methanone"], "SMILES": "C(=O)(C=1C=2C(N(CCN3CCOCC3)C1C)=CC=CC2)C4=CC=C(OC)C=C4", "physical_data": {"Molecular Weight": "378.46", "Molecular Formula": "C23H26N2O3", "Melting Point": "104-105 \u00b0C"}}