{"cas_no": "92643-17-9", "cn_name": "(6-\u6eb4-2-\u7532\u6c27\u57fa-1-\u8418\u57fa)\u4e59\u8148", "en_name": ["6-Bromo-2-methoxy-1-naphthaleneacetonitrile", "1-Naphthaleneacetonitrile, 6-bromo-2-methoxy-", "6-Bromo-2-methoxy-1-naphthaleneacetonitrile", "(6-Bromo-2-methoxy-naphthalen-1-yl)-acetonitrile", "2-(6-Bromo-2-methoxynaphthalen-1-yl)acetonitrile", "2-(6-Bromo-2-methoxy-1-naphthyl)acetonitrile"], "SMILES": "C(C#N)C=1C2=C(C=CC1OC)C=C(Br)C=C2", "physical_data": {"Molecular Weight": "276.13", "Molecular Formula": "C13H10BrNO", "Melting Point": "140-143 \u00b0C"}}