{"cas_no": "927-49-1", "cn_name": "\u4e8c\u6b63\u620a\u57fa\u916e", "en_name": ["6-Undecanone", "6-Undecanone", "Dipentyl ketone", "Amyl ketone", "Pentyl ketone", "Diamyl ketone"], "SMILES": "C(C(CCCCC)=O)CCCC", "physical_data": {"Molecular Weight": "170.29", "Molecular Formula": "C11H22O", "Boiling Point": "228 \u00b0C", "Melting Point": "14.5 \u00b0C", "Density": "0.81690 g/cm\u00b3 @ Temp: 15 \u00b0C"}}