{"cas_no": "927-63-9", "cn_name": "3-\u4e8c\u7532\u6c28\u57fa\u4e19\u70ef\u919b", "en_name": ["3-(Dimethylamino)-2-propenal", "2-Propenal, 3-(dimethylamino)-", "Acrolein, 3-(dimethylamino)-", "3-(Dimethylamino)-2-propenal", "4-Dimethylamino-2-propen-1-al", "\u03b2-(Dimethylamino)acrolein", "3-(Dimethylamino)acrolein", "3-(Dimethylamino)propenal", "3-(Dimethylamino)acrylaldehyde"], "SMILES": "C(N(C)C)=CC=O", "physical_data": {"Molecular Weight": "99.13", "Molecular Formula": "C5H9NO", "Boiling Point": "143-144 \u00b0C @ Press: 10-11 Torr"}}