{"cas_no": "927-68-4", "cn_name": "2-\u6eb4\u4e59\u57fa\u4e59\u9178\u916f", "en_name": ["2-Bromoethyl acetate", "Ethanol, 2-bromo-, 1-acetate", "Ethanol, 2-bromo-, acetate", "Acetic acid 2-bromoethyl ester", "1-Bromo-2-acetoxyethane", "2-Bromoethyl acetate", "1-Acetoxy-2-bromoethane", "2-Acetoxyethyl bromide", "NSC 7079", "2-Bromoethanol acetate"], "SMILES": "O(C(C)=O)CCBr", "physical_data": {"Molecular Weight": "167.00", "Molecular Formula": "C4H7BrO2", "Boiling Point": "162.5 \u00b0C", "Melting Point": "-13.8 \u00b0C", "Density": "1.502 g/cm\u00b3 @ Temp: 23 \u00b0C"}}