{"cas_no": "927-67-3", "cn_name": "\u6b63\u4e19\u57fa\u786b\u8132", "en_name": ["N-Propylthiourea", "Thiourea, N-propyl-", "Urea, 1-propyl-2-thio-", "Thiourea, propyl-", "N-Propylthiourea", "Propylthiourea", "1-Propyl-2-thiourea"], "SMILES": "N(C(N)=S)CCC", "physical_data": {"Molecular Weight": "118.20", "Molecular Formula": "C4H10N2S", "Melting Point": "109 \u00b0C"}}