{"cas_no": "927-07-1", "cn_name": "\u8fc7\u6c27\u5316\u65b0\u620a\u9178\u53d4\u4e01\u916f", "en_name": ["tert-Butyl peroxypivalate", "Propaneperoxoic acid, 2,2-dimethyl-, 1,1-dimethylethyl ester", "Peroxypivalic acid, tert-butyl ester", "tert-Butyl perpivalate", "Lupersol 11", "Trigonox 25/75", "tert-Butyl peroxypivalate", "tert-Butyl 2,2-dimethylperoxypropionate", "tert-Butyl trimethylperoxyacetate", "tert-Butyl 2,2-dimethylpropaneperoxoate", "Esperox 31M", "tert-Butyl tert-valeryl peroxide", "Perbutyl PV", "Kayaester P", "Kayaester P 70", "Trigonox 25C75", "Trigonox 25W33", "Luperox 11M75", "t-Butyl peroxypivalate", "Trigonox 25", "Luperox 11", "t-Butyl perpivalate", "Pivaloyl tert-butyl peroxide", "TBPV", "TX 25", "C 32", "Tert-Butyl peroxypivalate", "TBPPI 75AL"], "SMILES": "O(C(C(C)(C)C)=O)OC(C)(C)C", "physical_data": {"Molecular Weight": "174.24", "Molecular Formula": "C9H18O3", "Boiling Point": "63-65 \u00b0C @ Press: 10-11 Torr", "Density": "0.9092 g/cm\u00b3 @ Temp: 20 \u00b0C"}}