{"cas_no": "927-58-2", "cn_name": "4-\u6eb4\u4e01\u57fa\u6c2f\u9178", "en_name": ["4-Bromobutanoyl chloride", "Butanoyl chloride, 4-bromo-", "Butyryl chloride, 4-bromo-", "4-Bromobutanoyl chloride", "\u03b3-Bromobutyryl chloride", "4-Bromobutyryl chloride", "4-Bromobutanoic acid chloride", "\u03c9-Bromobutanoyl chloride", "4-Bromobutyroylic chloride"], "SMILES": "C(C(Cl)=O)CCBr", "physical_data": {"Molecular Weight": "185.45", "Molecular Formula": "C4H6BrClO", "Boiling Point": "101 \u00b0C @ Press: 37 Torr"}}