{"cas_no": "927-73-1", "cn_name": "4-\u6c2f-1-\u4e01\u70ef", "en_name": ["4-Chloro-1-butene", "1-Butene, 4-chloro-", "4-Chloro-1-butene", "3-Butenyl chloride", "1-Chloro-3-butene", "3-Buten-1-yl chloride", "Allylcarbinyl chloride"], "SMILES": "C(C=C)CCl", "physical_data": {"Molecular Weight": "90.55", "Molecular Formula": "C4H7Cl", "Boiling Point": "75 \u00b0C", "Density": "0.9211 g/cm\u00b3 @ Temp: 20 \u00b0C"}}