{"cas_no": "927-74-2", "cn_name": "3-\u4e01\u7094-1-\u9187", "en_name": ["3-Butyn-1-ol", "3-Butyn-1-ol", "1-Butyn-4-ol", "(2-Hydroxyethyl)acetylene", "3-Butynol", "4-Hydroxy-1-butyne", "3-Butynyl alcohol", "1-Hydroxy-3-butyne", "NSC 9708", "3-Butyn-1-yl alcohol"], "SMILES": "C(C#C)CO", "physical_data": {"Molecular Weight": "70.09", "Molecular Formula": "C4H6O", "Boiling Point": "129 \u00b0C", "Melting Point": "-63.6 \u00b0C", "Density": "0.9236 g/cm\u00b3 @ Temp: 20 \u00b0C"}}