{"cas_no": "927-55-9", "cn_name": "4-\u6c28\u57fa-1-\u620a\u9187", "en_name": ["4-Amino-1-pentanol", "1-Pentanol, 4-amino-", "4-Amino-1-pentanol", "NSC 1095"], "SMILES": "C(C(C)N)CCO", "physical_data": {"Molecular Weight": "103.16", "Molecular Formula": "C5H13NO", "Boiling Point": "117-119 \u00b0C @ Press: 25 Torr", "Melting Point": "32 \u00b0C"}}