{"cas_no": "927-62-8", "cn_name": "N,N-\u4e8c\u7532\u57fa\u4e01\u80fa", "en_name": ["1-(N,N-Dimethylamino)butane", "1-Butanamine, N,N-dimethyl-", "Butylamine, N,N-dimethyl-", "N,N-Dimethyl-1-butanamine", "N,N-Dimethylbutylamine", "Butyldimethylamine", "1-(N,N-Dimethylamino)butane", "N-Butyldimethylamine", "Dimethyl(n-butyl)amine", "N-n-Butyldimethylamine", "D 1506"], "SMILES": "C(N(C)C)CCC", "physical_data": {"Molecular Weight": "101.19", "Molecular Formula": "C6H15N", "Boiling Point": "95 \u00b0C", "Density": "1.0601 g/cm\u00b3 @ Temp: 20 \u00b0C"}}