{"cas_no": "927-77-5", "cn_name": "\u4e19\u57fa\u6eb4\u5316\u9541", "en_name": ["Propylmagnesium bromide", "Magnesium, bromopropyl-", "Propylmagnesium bromide", "Bromopropylmagnesium", "1-Propylmagnesium bromide", "n-Propylmagnesium bromide"], "SMILES": "C(CC)[Mg]Br", "physical_data": {"Molecular Weight": "", "Molecular Formula": "C3H7BrMg", "Boiling Point": "120-121 \u00b0C @ Press: 0.2 Torr", "Melting Point": "61.5-62.5 \u00b0C"}}