{"cas_no": "927-80-0", "cn_name": "\u4e59\u6c27\u57fa\u4e59\u7094", "en_name": ["Ethyne, ethoxy-", "Ethyne, ethoxy-", "Ether, ethyl ethynyl", "Ethoxyacetylene", "Ethyl ethynyl ether", "Ethoxyethyne", "1-Ethoxyethyne", "Ethynyl ethyl ether"], "SMILES": "O(CC)C#C", "physical_data": {"Molecular Weight": "70.09", "Molecular Formula": "C4H6O", "Boiling Point": "50 \u00b0C", "Density": "0.7874 g/cm\u00b3 @ Temp: 25 \u00b0C"}}