{"cas_no": "928-95-0", "cn_name": "\u53cd\u5f0f-2-\u5df1\u70ef\u9187", "en_name": ["trans-2-Hexen-1-ol", "2-Hexen-1-ol, (2E)-", "2-Hexen-1-ol, (E)-", "2-Hexen-1-ol, trans-", "(2E)-2-Hexen-1-ol", "trans-2-Hexenol", "trans-4-Ethyl-2-buten-1-ol", "n-Hex-trans-2-en-1-ol", "trans-2-Hexen-1-ol", "(E)-2-Hexen-1-ol", "(E)-2-Hexene-1-ol", "1-Hydroxy-2-trans-hexene", "(E)-2-Hexenol", "trans-2-Hexene-1-ol", "(E)-Hex-2-en-1-ol"], "SMILES": "C(CCC)=CCO", "physical_data": {"Molecular Weight": "100.16", "Molecular Formula": "C6H12O", "Boiling Point": "157 \u00b0C", "Melting Point": "155-156 \u00b0C", "Density": "0.8490 g/cm\u00b3 @ Temp: 16 \u00b0C"}}