{"cas_no": "928-68-7", "cn_name": "6-\u7532\u57fa-2\u5e9a\u916e", "en_name": ["6-Methyl-2-heptanone", "2-Heptanone, 6-methyl-", "6-Methyl-2-heptanone", "2-Methyl-6-heptanone", "Methyl isohexyl ketone", "NSC 39665", "2-Isooctanone", "Isooctan-2-one", "6-Methylhept-2-one"], "SMILES": "C(CC(C)C)CC(C)=O", "physical_data": {"Molecular Weight": "128.21", "Molecular Formula": "C8H16O", "Boiling Point": "167 \u00b0C", "Density": "0.8151 g/cm\u00b3 @ Temp: 20 \u00b0C"}}