{"cas_no": "928-80-3", "cn_name": "3-\u7678\u916e", "en_name": ["3-Decanone", "3-Decanone", "Ethyl heptyl ketone"], "SMILES": "C(CC(CC)=O)CCCCC", "physical_data": {"Molecular Weight": "156.27", "Molecular Formula": "C10H20O", "Boiling Point": "203 \u00b0C", "Melting Point": "2.5 \u00b0C"}}