{"cas_no": "928-97-2", "cn_name": "\u53cd\u5f0f-3-\u5df1\u70ef-1-\u9187", "en_name": ["trans-3-Hexen-1-ol", "3-Hexen-1-ol, (3E)-", "3-Hexen-1-ol, (E)-", "3-Hexen-1-ol, trans-", "(3E)-3-Hexen-1-ol", "trans-3-Hexen-1-ol", "trans-3-Hexenol", "(E)-3-Hexen-1-ol", "(E)-3-Hexenol", "(3E)-Hexenol", "(3E)-Hex-3-en-1-ol", "trans-1-Hydroxy-3-hexene"], "SMILES": "C(=CCC)CCO", "physical_data": {"Molecular Weight": "100.16", "Molecular Formula": "C6H12O", "Boiling Point": "51-53 \u00b0C @ Press: 9 Torr", "Melting Point": "99 \u00b0C"}}