{"cas_no": "928-40-5", "cn_name": "1,5-\u5df1\u4e8c\u9187", "en_name": ["1,5-Hexanediol", "1,5-Hexanediol", "Hexane-2,6-diol", "1,5-Dihydroxyhexane", "1-Methyl-1,5-pentanediol", "Hexan-1,5-diol"], "SMILES": "C(CCCO)C(C)O", "physical_data": {"Molecular Weight": "118.17", "Molecular Formula": "C6H14O2", "Boiling Point": "237 \u00b0C", "Density": "0.971 g/cm\u00b3 @ Temp: 20 \u00b0C"}}