{"cas_no": "928-91-6", "cn_name": "(Z)-4-\u5df1\u70ef-1-\u9187", "en_name": ["cis-4-Hexen-1-ol", "4-Hexen-1-ol, (4Z)-", "4-Hexen-1-ol, (Z)-", "(4Z)-4-Hexen-1-ol", "cis-4-Hexen-1-ol", "Z-Hex-4-en-1-ol", "cis-4-Hexenol", "(4Z)-Hex-4-en-1-ol"], "SMILES": "C(C=CC)CCO", "physical_data": {"Molecular Weight": "100.16", "Molecular Formula": "C6H12O", "Boiling Point": "158-159 \u00b0C"}}