{"cas_no": "928-17-6", "cn_name": "3-\u7f9f\u57fa\u5341\u516d\u70f7\u9178", "en_name": ["3-Hydroxyhexadecanoic acid", "Hexadecanoic acid, 3-hydroxy-", "3-Hydroxyhexadecanoic acid", "3-Hydroxypalmitic acid", "\u03b2-Hydroxypalmitic acid", "\u03b2-Hydroxyhexadecanoic acid", "DL-3-Hydroxyhexadecanoic acid", "DL-3-Hydroxypalmitic acid", "(3RS)-3-Hydroxyhexadecanoic acid", "C16:0 3-OH"], "SMILES": "C(CCCCCCCCCCCC)C(CC(O)=O)O", "physical_data": {"Molecular Weight": "272.42", "Molecular Formula": "C16H32O3", "Melting Point": "78-79 \u00b0C"}}