{"cas_no": "928-55-2", "cn_name": "\u4e59\u57fa\u4e19\u70ef\u919a", "en_name": ["Ethyl 1-propenyl ether", "1-Propene, 1-ethoxy-", "Ether, ethyl propenyl", "1-Ethoxy-1-propene", "Ethyl 1-propenyl ether", "Ethyl propenyl ether", "1-Ethoxypropene", "NSC 6107", "(1-Propen-1-yloxy)ethane", "Ethyl 1-propen-1-yl ether"], "SMILES": "C(OCC)=CC", "physical_data": {"Molecular Weight": "86.13", "Molecular Formula": "C5H10O", "Boiling Point": "69 \u00b0C", "Density": "0.7754 g/cm\u00b3 @ Temp: 0 \u00b0C"}}