{"cas_no": "928-98-3", "cn_name": "1,5-\u620a\u4e8c\u786b\u9187", "en_name": ["1,5-Pentanedithiol", "1,5-Pentanedithiol", "1,5-Dimercaptopentane", "NSC 51699", "1,5-Dithiolpentane"], "SMILES": "C(CCS)CCS", "physical_data": {"Molecular Weight": "136.28", "Molecular Formula": "C5H12S2", "Boiling Point": "108-109 \u00b0C @ Press: 15 Torr"}}