{"cas_no": "928-94-9", "cn_name": "\u987a-2-\u5df2\u70ef-1-\u9187", "en_name": ["cis-2-Hexen-1-ol", "2-Hexen-1-ol, (2Z)-", "2-Hexen-1-ol, (Z)-", "(2Z)-2-Hexen-1-ol", "cis-2-Hexen-1-ol", "cis-\u03b2,\u03b3-Hexenol", "(Z)-2-Hexen-1-ol", "(Z)-2-Hexenol", "(Z)-1-Hydroxy-2-hexene", "cis-2-Hexenol"], "SMILES": "C(CCC)=CCO", "physical_data": {"Molecular Weight": "100.16", "Molecular Formula": "C6H12O", "Boiling Point": "157 \u00b0C", "Density": "0.8478 g/cm\u00b3 @ Temp: 21.6 \u00b0C"}}