{"cas_no": "928-49-4", "cn_name": "3-\u5df1\u7094", "en_name": ["3-Hexyne", "3-Hexyne", "Diethylacetylene"], "SMILES": "C(#CCC)CC", "physical_data": {"Molecular Weight": "82.14", "Molecular Formula": "C6H10", "Boiling Point": "81 \u00b0C", "Melting Point": "-103 \u00b0C", "Density": "0.7231 g/cm\u00b3 @ Temp: 20 \u00b0C"}}