{"cas_no": "928-01-8", "cn_name": "\u9a6c\u6765\u9178\u4e8c\u80fa", "en_name": ["Maleamide", "2-Butenediamide, (2Z)-", "Maleamide", "2-Butenediamide, (Z)-", "(2Z)-2-Butenediamide", "Maleic diamide", "Maleic acid diamide", "(Z)-2-Butenediamide"], "SMILES": "C(=CC(N)=O)C(N)=O", "physical_data": {"Molecular Weight": "114.10", "Molecular Formula": "C4H6N2O2", "Melting Point": "180 \u00b0C"}}