{"cas_no": "928-90-5", "cn_name": "5-\u5df1\u7094-1-\u9187", "en_name": ["5-Hexyn-1-ol", "5-Hexyn-1-ol", "1-Hydroxy-5-hexyne", "6-Hydroxy-1-hexyne", "5-Hexynyl alcohol", "5-Hexynol", "1-Hexyn-6-ol"], "SMILES": "C(CC#C)CCO", "physical_data": {"Molecular Weight": "98.14", "Molecular Formula": "C6H10O", "Boiling Point": "75 \u00b0C @ Press: 16 Torr", "Melting Point": "172 \u00b0C", "Density": "0.902 g/cm\u00b3 @ Temp: 20 \u00b0C"}}