{"cas_no": "928-96-1", "cn_name": "\u53f6\u9187", "en_name": ["cis-3-Hexen-1-ol", "3-Hexen-1-ol, (3Z)-", "3-Hexen-1-ol, (Z)-", "3-Hexen-1-ol, cis-", "(3Z)-3-Hexen-1-ol", "Blaetteralkohol", "Leaf alcohol", "cis-3-Hexenol", "(Z)-3-Hexenol", "(Z)-Hex-3-en-1-ol", "ENT 25091", "cis-3-Hexen-1-ol", "cis-3-Hexene-1-ol", "cis-3-Hexenyl alcohol", "Folic alcohol", "3Z-Hexen-1-ol", "3Z-Hexen-1-ol", "Green leaf alcohol", "(3Z)-Hexenol", "(Z)-3-Hexen-1-ol", "cis-1-Hydroxy-3-hexene"], "SMILES": "C(=CCC)CCO", "physical_data": {"Molecular Weight": "100.16", "Molecular Formula": "C6H12O", "Boiling Point": "156.5 \u00b0C", "Melting Point": "91 \u00b0C"}}