{"cas_no": "928-65-4", "cn_name": "\u6b63\u5df1\u57fa\u4e09\u6c2f\u7845\u70f7", "en_name": ["Hexyltrichlorosilane", "Silane, trichlorohexyl-", "Trichlorohexylsilane", "Hexyltrichlorosilane", "n-Hexyltrichlorosilane", "NSC 139843", "1,1,1-Trichloro-1-silaheptane", "1-Hexyltrichlorosilane"], "SMILES": "C(C[Si](Cl)(Cl)Cl)CCCC", "physical_data": {"Molecular Weight": "219.61", "Molecular Formula": "C6H13Cl3Si", "Boiling Point": "190 \u00b0C", "Density": "1.1100 g/cm\u00b3 @ Temp: 20 \u00b0C"}}