{"cas_no": "928-89-2", "cn_name": "6-\u6c2f-1-\u5df1\u70ef", "en_name": ["6-Chloro-1-hexene", "1-Hexene, 6-chloro-", "6-Chloro-1-hexene", "5-Hexen-1-yl chloride", "5-Hexenyl chloride", "1-Chlorohex-5-ene"], "SMILES": "C(CC=C)CCCl", "physical_data": {"Molecular Weight": "118.60", "Molecular Formula": "C6H11Cl", "Boiling Point": "128-130 \u00b0C"}}