{"cas_no": "928-50-7", "cn_name": "5-\u6c2f-1-\u620a\u70ef", "en_name": ["5-Chloro-1-pentene", "1-Pentene, 5-chloro-", "5-Chloro-1-pentene", "4-Pentenyl chloride", "1-Chloro-4-pentene"], "SMILES": "C(CCCl)C=C", "physical_data": {"Molecular Weight": "104.58", "Molecular Formula": "C5H9Cl", "Boiling Point": "105 \u00b0C", "Density": "0.9125 g/cm\u00b3 @ Temp: 20 \u00b0C"}}