{"cas_no": "928-45-0", "cn_name": "\u785d\u9178\u6b63\u4e01\u916f", "en_name": ["Butyl nitrate", "Nitric acid, butyl ester", "Butyl nitrate", "n-Butyl nitrate"], "SMILES": "O(CCCC)N(=O)=O", "physical_data": {"Molecular Weight": "119.12", "Molecular Formula": "C4H9NO3", "Boiling Point": "133 \u00b0C", "Melting Point": "&lt;0 \u00b0C", "Density": "1.10153 g/cm\u00b3 @ Temp: 20 \u00b0C"}}