{"cas_no": "928-92-7", "cn_name": "(E)-4-\u5df1\u70ef-1-\u9187", "en_name": ["(E)-4-Hexen-1-ol", "4-Hexen-1-ol, (4E)-", "4-Hexen-1-ol, (E)-", "(4E)-4-Hexen-1-ol", "trans-4-Hexen-1-ol", "trans-4-Hexenol", "(E)-4-Hexen-1-ol", "(E)-4-Hexen-1-ol"], "SMILES": "C(C=CC)CCO", "physical_data": {"Molecular Weight": "100.16", "Molecular Formula": "C6H12O", "Boiling Point": "159 \u00b0C"}}