{"cas_no": "928-51-8", "cn_name": "4-\u6c2f-1-\u4e01\u9187", "en_name": ["4-Chloro-1-butanol", "1-Butanol, 4-chloro-", "4-Chloro-1-butanol", "Tetramethylene chlorohydrin", "4-Chlorobutanol", "4-Chloro-1-hydroxybutane", "\u03c9-Chlorobutanol", "1-Chloro-4-butanol", "NSC 10810", "2-(2-Chloroethyl)ethanol", "4-Chlorobutyl alcohol"], "SMILES": "C(CCO)CCl", "physical_data": {"Molecular Weight": "108.57", "Molecular Formula": "C4H9ClO", "Boiling Point": "84-85 \u00b0C", "Density": "1.0883 g/cm\u00b3 @ Temp: 20 \u00b0C"}}