{"cas_no": "928326-83-4", "cn_name": "BIBF-1120", "en_name": ["Nintedanib", "1H-Indole-6-carboxylic acid, 2,3-dihydro-3-[[[4-[methyl[2-(4-methyl-1-piperazinyl)acetyl]amino]phenyl]amino]phenylmethylene]-2-oxo-, methyl ester, (3Z)-", "1H-Indole-6-carboxylic acid, 2,3-dihydro-3-[[[4-[methyl[(4-methyl-1-piperazinyl)acetyl]amino]phenyl]amino]phenylmethylene]-2-oxo-, methyl ester, (3Z)-", "BIBF 1120", "Nintedanib", "Vargatef", "Ofev", "Methyl (Z)-3-[[[4-[N-methyl-2-(4-methylpiperazin-1-yl)acetamido]phenyl]amino](phenyl)methylene]-2-oxoindoline-6-carboxylate", "Methyl (Z)-3-[[[4-(N-methyl-2-(4-methylpiperazin-1-yl)acetamido)phenyl)amino)(phenyl)methylene)-2-oxoindoline-6-carboxylate"], "SMILES": "C(NC1=CC=C(N(C(CN2CCN(C)CC2)=O)C)C=C1)(=C3C=4C(NC3=O)=CC(C(OC)=O)=CC4)C5=CC=CC=C5", "physical_data": {"Molecular Weight": "539.62", "Molecular Formula": "C31H33N5O4", "Melting Point": "240-246 \u00b0C"}}