{"cas_no": "929-73-7", "cn_name": "\u7678\u80fa\u76d0\u9178\u76d0", "en_name": ["Dodecylammonium chloride", "1-Dodecanamine, hydrochloride (1:1)", "Dodecylamine, hydrochloride", "1-Dodecanamine, hydrochloride", "Dodecylammonium chloride", "Laurylamine hydrochloride", "1-Aminododecane hydrochloride", "n-Dodecylammonium chloride", "Dodecanamine hydrochloride", "Laurylammonium chloride", "n-Dodecylamine hydrochloride"], "SMILES": "C(CCCCCC)CCCCCN.Cl", "physical_data": {"Molecular Weight": "", "Molecular Formula": "C12H27N.ClH", "Melting Point": "183-186 \u00b0C (decomp)"}}