{"cas_no": "929-06-6", "cn_name": "\u4e8c\u7518\u9187\u80fa", "en_name": ["Diglycolamine", "Ethanol, 2-(2-aminoethoxy)-", "2-(2-Aminoethoxy)ethanol", "Diglycolamine", "\u03b2-Hydroxy-\u03b2\u2032-aminodiethyl ether", "Diethylene glycol monoamine", "1-Amino-2-(2-hydroxyethoxy)ethane", "2-Amino-2\u2032-hydroxydiethyl ether", "Diethylene glycol amine", "2-(2-Hydroxyethoxy)ethylamine", "\u03b2-(\u03b2-Hydroxyethoxy)ethylamine", "2-(Hydroxyethoxy)ethylamine", "2-Aminoethyl 2-hydroxyethyl ether", "5-Amino-3-oxapentan-1-ol", "5-Hydroxy-3-oxapentylamine", "NSC 86108", "Diglycolamine Agent", "2-(2-Aminoethoxy)ethan-1-ol", "O-(2-Hydroxyethyl) ethanolamine"], "SMILES": "O(CCN)CCO", "physical_data": {"Molecular Weight": "105.14", "Molecular Formula": "C4H11NO2", "Boiling Point": "221 \u00b0C", "Density": "1.0572 g/cm\u00b3 @ Temp: 20 \u00b0C"}}