{"cas_no": "929-37-3", "cn_name": "\u4e8c\u4e59\u4e8c\u9187\u5355\u4e59\u70ef\u57fa\u919a", "en_name": ["Diethylene glycol monovinyl ether", "Ethanol, 2-[2-(ethenyloxy)ethoxy]-", "Ethanol, 2-[2-(vinyloxy)ethoxy]-", "2-[2-(Ethenyloxy)ethoxy]ethanol", "Diethylene glycol monovinyl ether", "2-[2-(Vinyloxy)ethoxy]ethanol", "NSC 8267", "2-(Hydroxyethoxy)ethyl vinyl ether", "1-Vinyloxy-5-hydroxy-3-oxapentane", "2-(2-Hydroxyethoxy)ethyl vinyl ether", "2-(2-Ethenoxyethoxy)ethanol", "EM 2241H"], "SMILES": "C(COC=C)OCCO", "physical_data": {"Molecular Weight": "132.16", "Molecular Formula": "C6H12O3", "Boiling Point": "78-79 \u00b0C @ Press: 2.5 Torr", "Density": "1.0267 g/cm\u00b3 @ Temp: 20 \u00b0C"}}