{"cas_no": "929-10-2", "cn_name": "6-\u7532\u57fa\u5e9a\u9178", "en_name": ["6-Methylheptanoic acid", "Heptanoic acid, 6-methyl-", "6-Methylheptanoic acid", "Isocaprylic acid", "iso-Caprylic acid"], "SMILES": "C(CCC(O)=O)CC(C)C", "physical_data": {"Molecular Weight": "144.21", "Molecular Formula": "C8H16O2", "Boiling Point": "126-127 \u00b0C @ Press: 14 Torr"}}