{"cas_no": "929-62-4", "cn_name": "\u6b63\u8f9b\u57fa\u4e59\u70ef\u57fa\u919a", "en_name": ["1-(Ethenyloxy)octane", "Octane, 1-(ethenyloxy)-", "Ether, octyl vinyl", "1-(Ethenyloxy)octane", "n-Octyl vinyl ether", "Octyl vinyl ether", "Vinyl octyl ether", "1-(Vinyloxy)octane"], "SMILES": "C(CCCCC)CCOC=C", "physical_data": {"Molecular Weight": "156.27", "Molecular Formula": "C10H20O", "Boiling Point": "75 \u00b0C @ Press: 5 Torr", "Density": "0.8028 g/cm\u00b3 @ Temp: 420 \u00b0C"}}