{"cas_no": "929-75-9", "cn_name": "3,6,9-\u4e09\u6c27\u6742\u5341\u4e00\u70f7-1,11-\u4e8c\u80fa", "en_name": ["1,11-Diamino-3,6,9-trioxaundecane", "Ethanamine, 2,2\u2032-[oxybis(2,1-ethanediyloxy)]bis-", "Ethylamine, 2,2\u2032-[oxybis(ethyleneoxy)]bis-", "2,2\u2032-[Oxybis(2,1-ethanediyloxy)]bis[ethanamine]", "Tetraethylene glycol diamine", "1,11-Diamino-3,6,9-trioxaundecane", "3,6,9-Trioxaundecane-1,11-diamine", "Jeffamine EDR 192", "Bis[2-(2-aminoethoxy)ethyl] ether", "EDR 192", "1,11-Diamine-3,6,9-trioxaundecane", "2,2\u2032-[[Oxybis(ethane-2,1-diyl)]bis(oxy)]diethanamine", "2-[2-[2-(2-Aminoethoxy)ethoxy]ethoxy]ethanamine", "2,2\u2032-[Oxybis(2,1-ethanediyloxy)]diethanamine", "2-[2-[2-[2-Aminoethoxy]ethoxy]ethoxy]ethylamine"], "SMILES": "O(CCOCCN)CCOCCN", "physical_data": {"Molecular Weight": "192.26", "Molecular Formula": "C8H20N2O3", "Boiling Point": "124-127 \u00b0C @ Press: 1.7 Torr", "Density": "1.2892 g/cm\u00b3 @ Temp: 20 \u00b0C"}}