{"cas_no": "929-59-9", "cn_name": "1,8-\u4e8c\u6c28\u57fa-3,6-\u4e8c\u6c27\u6742\u8f9b\u70f7", "en_name": ["2,2\u2032-(Ethylenedioxy)bis(ethylamine)", "Ethanamine, 2,2\u2032-[1,2-ethanediylbis(oxy)]bis-", "Ethylamine, 2,2\u2032-(ethylenedioxy)bis-", "2,2\u2032-[1,2-Ethanediylbis(oxy)]bis[ethanamine]", "3,6-Dioxa-1,8-octanediamine", "1,8-Diamino-3,6-dioxaoctane", "1,2-Bis(2-aminoethoxy)ethane", "Jeffamine EDR 148", "2,2\u2032-(Ethylenedioxy)bis(ethylamine)", "Ethylene glycol bis(2-aminoethyl) ether", "2,2\u2032-(Ethylenedioxy)diethylamine", "EDR 148", "DA 10", "XTJ 504", "Daitocurar J 5030", "NSC 28972", "2-[2-(2-Aminoethoxy)ethoxy]ethylamine", "O,O\u2032-Bis(2-aminoethyl)ethylene glycol", "2-(2-(2-Aminoethoxy)ethoxy)ethanamine", "1,8-Diamine-3,6-dioxaoctane", "2-[2-(2-Aminoethoxy)ethoxy]ethan-1-amine", "1,10-Diaza-4,7-dioxadecane", "Jeffamine 148", "2,2\u2032-(Ethan-1,2-diylbis(oxy))diethanamine", "2,2\u2032-(Ethane-1,2-diylbis(oxy))diethanamine", "Epic 91B", "2,2-(Ethylenedioxy)diethylamine", "O,O\u2032-Bis(2-aminoethyl)-1,2-ethanediol", "2,2\u2032-(Ethan-1,2-diylbis(oxy))bis(ethan-1-amine)", "2,2\u2032-(Ethane-1,2-diylbis(oxy))bis(ethan-1-amine)", "2,2\u2032-(Ethylenedioxy)bisethylenediamine"], "SMILES": "C(COCCN)OCCN", "physical_data": {"Molecular Weight": "148.20", "Molecular Formula": "C6H16N2O2", "Boiling Point": "95-105 \u00b0C @ Press: 5 Torr"}}