{"cas_no": "929-77-1", "cn_name": "\u5c71\u5d5b\u9178\u7532\u916f", "en_name": ["Methyl behenate", "Docosanoic acid, methyl ester", "Methyl behenate", "Methyl docosanoate", "Methyl n-docosanoate", "Behenic acid methyl ester", "Kemester 9022", "Kemester 9027-90", "NSC 158426"], "SMILES": "C(CCCCCCCCCCCCCCCC)CCCCC(OC)=O", "physical_data": {"Molecular Weight": "354.61", "Molecular Formula": "C23H46O2", "Boiling Point": "224-225 \u00b0C @ Press: 15 Torr", "Melting Point": "54 \u00b0C"}}