{"cas_no": "929-17-9", "cn_name": "7-\u6c28\u57fa\u5e9a\u9178", "en_name": ["7-Aminoheptanoic acid", "Heptanoic acid, 7-amino-", "7-Aminoheptanoic acid", "\u03c9-Aminoheptanoic acid", "7-Aminoenanthic acid", "\u03c9-Aminoenanthic acid", "\u03b6-Aminoenanthic acid", "NSC 59008"], "SMILES": "C(CCCCN)CC(O)=O", "physical_data": {"Molecular Weight": "145.20", "Molecular Formula": "C7H15NO2", "Melting Point": "186-187 \u00b0C"}}