{"cas_no": "92950-42-0", "cn_name": "13-\u6c27\u5316-10-DAB", "en_name": ["(2aR,4S,4aS,6R,11S,12S,12aR,12bS)-12b-(Acetyloxy)-12-(benzoyloxy)-2a,4,4a,10,11,12,12a,12b-octahydro-4,6,11-trihydroxy-4a,8,13,13-tetramethyl-7,11-methano-1H-cyclodeca[3,4]benz[1,2-b]oxete-5,9(3H,6H)-dione", "7,11-Methano-1H-cyclodeca[3,4]benz[1,2-b]oxete-5,9(3H,6H)-dione, 12b-(acetyloxy)-12-(benzoyloxy)-2a,4,4a,10,11,12,12a,12b-octahydro-4,6,11-trihydroxy-4a,8,13,13-tetramethyl-, (2aR,4S,4aS,6R,11S,12S,12aR,12bS)-", "7,11-Methano-1H-cyclodeca[3,4]benz[1,2-b]oxete-5,9(3H,6H)-dione, 12b-(acetyloxy)-12-(benzoyloxy)-2a,4,4a,10,11,12,12a,12b-octahydro-4,6,11-trihydroxy-4a,8,13,13-tetramethyl-, [2aR-(2a\u03b1,4\u03b2,4a\u03b2,6\u03b2,11\u03b1,12\u03b1,12a\u03b1,12b\u03b1)]-", "(2aR,4S,4aS,6R,11S,12S,12aR,12bS)-12b-(Acetyloxy)-12-(benzoyloxy)-2a,4,4a,10,11,12,12a,12b-octahydro-4,6,11-trihydroxy-4a,8,13,13-tetramethyl-7,11-methano-1H-cyclodeca[3,4]benz[1,2-b]oxete-5,9(3H,6H)-dione", "10-Deacetyl-13-oxobaccatin III"], "SMILES": "O(C(C)=O)C12C3C(OC(=O)C4=CC=CC=C4)C5(O)C(C)(C)C(C(O)C(=O)C3(C)C(O)CC1OC2)=C(C)C(=O)C5", "physical_data": {"Molecular Weight": "542.57", "Molecular Formula": "C29H34O10", "Melting Point": "205-207 \u00b0C"}}