{"cas_no": "92977-45-2", "cn_name": "4-BROMO-2-CHLOROTHIAZOLE", "en_name": ["4-Bromo-2-chlorothiazole", "Thiazole, 4-bromo-2-chloro-", "4-Bromo-2-chlorothiazole"], "SMILES": "BrC=1N=C(Cl)SC1", "physical_data": {"Molecular Weight": "198.47", "Molecular Formula": "C3HBrClNS", "Melting Point": "59-60 \u00b0C"}}