{"cas_no": "93-01-6", "cn_name": "2-\u8418\u915a-6-\u78fa\u9178", "en_name": ["2-Naphthol-6-sulfonic acid", "2-Naphthalenesulfonic acid, 6-hydroxy-", "6-Hydroxy-2-naphthalenesulfonic acid", "\u03b2-Naphtholsulfonic acid S", "\u03b2-Naphthol-6-sulfonic acid", "2-Naphthol-6-sulfonic acid", "Schaeffer's acid", "Schaeffer's \u03b2-acid", "Schaeffer's \u03b2-naphtholsulfonic acid", "2-Hydroxy-6-naphthalenesulfonic acid", "Schaffer's acid", "NSC 5871", "2-Hydroxy-naphthalene-6-sulphonic acid"], "SMILES": "S(=O)(=O)(O)C1=CC2=C(C=C1)C=C(O)C=C2", "physical_data": {"Molecular Weight": "224.23", "Molecular Formula": "C10H8O4S", "Melting Point": "125 \u00b0C"}}