{"cas_no": "93-08-3", "cn_name": "2-\u8418\u4e59\u916e", "en_name": ["2-Acetylnaphthalene", "Ethanone, 1-(2-naphthalenyl)-", "2\u2032-Acetonaphthone", "1-(2-Naphthalenyl)ethanone", "\u03b2-Acetonaphthone", "Methyl \u03b2-naphthyl ketone", "\u03b2-Naphthyl methyl ketone", "Methyl 2-naphthyl ketone", "2-Naphthyl methyl ketone", "\u03b2-Acetylnaphthalene", "2-Acetylnaphthalene", "1-(2-Naphthyl)ethanone", "NSC 7658", "1-(Naphthalen-2-yl)ethanone", "1-(Naphthalen-3-yl)ethanone", "2-Acetonaphthalene", "Oranger crystals", "1-(Naphthalen-2-yl) ethan-1-one", "1-(2-Naphthyl)ethan-1-one"], "SMILES": "C(C)(=O)C1=CC2=C(C=C1)C=CC=C2", "physical_data": {"Molecular Weight": "170.21", "Molecular Formula": "C12H10O", "Boiling Point": "302 \u00b0C", "Melting Point": "56 \u00b0C"}}