{"cas_no": "93-07-2", "cn_name": "\u85dc\u82a6\u9178", "en_name": ["Veratric acid", "Benzoic acid, 3,4-dimethoxy-", "Veratric acid", "3,4-Dimethoxybenzoic acid", "Dimethylprotocatechuic acid", "NSC 7721", "3,4-Bis(methyloxy)benzoic acid"], "SMILES": "O(C)C1=C(OC)C=CC(C(O)=O)=C1", "physical_data": {"Molecular Weight": "182.17", "Molecular Formula": "C9H10O4", "Melting Point": "181 \u00b0C"}}