{"cas_no": "93-04-9", "cn_name": "2-\u8418\u7532\u919a", "en_name": ["2-Methoxynaphthalene", "Naphthalene, 2-methoxy-", "Ether, methyl 2-naphthyl", "2-Methoxynaphthalene", "Methyl \u03b2-naphthyl ether", "\u03b2-Naphthol methyl ether", "Nerolin", "Yara yara", "2-Naphthol methyl ether", "Nerolin (old)", "\u03b2-Naphthyl methyl ether", "Methyl 2-naphthyl ether", "\u03b2-Methoxynaphthalene", "2-Naphthyl methyl ether", "NSC 4171", "6-Methoxy-2-naphthalene", "Nerolin yara yara"], "SMILES": "O(C)C1=CC2=C(C=C1)C=CC=C2", "physical_data": {"Molecular Weight": "158.20", "Molecular Formula": "C11H10O", "Boiling Point": "274 \u00b0C", "Melting Point": "73.5 \u00b0C"}}