{"cas_no": "93-03-8", "cn_name": "3,4-\u4e8c\u7532\u6c27\u57fa\u82c4\u9187", "en_name": ["Veratryl alcohol", "Benzenemethanol, 3,4-dimethoxy-", "Veratryl alcohol", "3,4-Dimethoxybenzenemethanol", "3,4-Dimethoxybenzyl alcohol", "3,4-Dimethoxyphenylmethyl alcohol", "Veratralcohol", "(3,4-Dimethoxyphenyl)methanol", "NSC 6317", "[3,4-Bis(methyloxy)phenyl] methanol", "Veratric alcohol"], "SMILES": "O(C)C1=C(OC)C=CC(CO)=C1", "physical_data": {"Molecular Weight": "168.19", "Molecular Formula": "C9H12O3", "Boiling Point": "298 \u00b0C", "Density": "1.180 g/cm\u00b3 @ Temp: 16 \u00b0C"}}