{"cas_no": "93-05-0", "cn_name": "N,N-\u4e8c\u4e59\u57fa\u5bf9\u82ef\u4e8c\u80fa", "en_name": ["N,N-Diethyl-p-phenylenediamine", "1,4-Benzenediamine, N1,N1-diethyl-", "p-Phenylenediamine, N,N-diethyl-", "1,4-Benzenediamine, N,N-diethyl-", "N1,N1-Diethyl-1,4-benzenediamine", "N,N-Diethyl-p-phenylenediamine", "p-(Diethylamino)aniline", "p-Amino-N,N-diethylaniline", "N,N-Diethyl-4-aminoaniline", "4-(Diethylamino)aniline", "DPD", "N,N-Diethyl-1,4-benzenediamine", "N,N-Diethyl-1,4-phenylenediamine", "PPD 89", "4-Amino-N,N-diethylaniline", "4-(N,N-Diethylamino)aniline", "NSC 147488", "4-(Diethylamino)phenylamine", "1-N,1-N-Diethylbenzene-1,4-diamine"], "SMILES": "N(CC)(CC)C1=CC=C(N)C=C1", "physical_data": {"Molecular Weight": "164.25", "Molecular Formula": "C10H16N2", "Boiling Point": "260-262 \u00b0C", "Melting Point": "144 \u00b0C", "Density": "0.988 g/cm\u00b3"}}