{"cas_no": "93-09-4", "cn_name": "2-\u8418\u7532\u9178", "en_name": ["2-Naphthoic acid", "2-Naphthalenecarboxylic acid", "2-Naphthoic acid", "Isonaphthoic acid", "2-Maythic acid", "\u03b2-Naphthalenecarboxylic acid", "\u03b2-Naphthoic acid", "2-Carboxynaphthalene", "2-Naphthylcarboxylic acid", "NSC 59901"], "SMILES": "C(O)(=O)C1=CC2=C(C=C1)C=CC=C2", "physical_data": {"Molecular Weight": "172.18", "Molecular Formula": "C11H8O2", "Boiling Point": "&gt;300 \u00b0C", "Melting Point": "185.5 \u00b0C", "Density": "0.9629 g/cm\u00b3"}}