{"cas_no": "93-02-7", "cn_name": "2,5-\u4e8c\u7532\u6c27\u57fa\u82ef\u7532\u919b", "en_name": ["2,5-Dimethoxybenzaldehyde", "Benzaldehyde, 2,5-dimethoxy-", "2,5-Dimethoxybenzaldehyde", "NSC 6315"], "SMILES": "C(=O)C1=C(OC)C=CC(OC)=C1", "physical_data": {"Molecular Weight": "166.17", "Molecular Formula": "C9H10O3", "Boiling Point": "270 \u00b0C", "Melting Point": "52 \u00b0C"}}