{"cas_no": "93-15-2", "cn_name": "\u7532\u57fa\u4e01\u9999\u915a", "en_name": ["Methyleugenol", "Benzene, 1,2-dimethoxy-4-(2-propen-1-yl)-", "Benzene, 4-allyl-1,2-dimethoxy-", "Benzene, 1,2-dimethoxy-4-(2-propenyl)-", "Veratrole, 4-allyl-", "1,2-Dimethoxy-4-(2-propen-1-yl)benzene", "Ent 21040", "4-Allylveratrole", "1,2-Dimethoxy-4-allylbenzene", "Eugenol methyl ether", "1,3,4-Eugenol methyl ether", "Eugenyl methyl ether", "Veratrole methyl ether", "Methyleugenol", "Methyl eugenol ether", "O-Methyleugenol", "3,4-Dimethoxyallylbenzene", "1-(3,4-Dimethoxyphenyl)-2-propene", "Chavibetol methyl ether", "4-Allyl-1,2-dimethoxybenzene", "3-(3,4-Dimethoxyphenyl)propene", "1-Allyl-3,4-dimethoxybenzene", "Methyl eugenyl ether", "Methylchavibetol", "NSC 209528", "NSC 8900", "1,2-Dimethoxy-4-(2-propenyl)benzene", "3,4-Dimethoxy-1-(2-propenyl)benzene", "3-(3,4-Dimethoxyphenyl)-1-propene"], "SMILES": "O(C)C1=C(OC)C=CC(CC=C)=C1", "physical_data": {"Molecular Weight": "178.23", "Molecular Formula": "C11H14O2", "Boiling Point": "254.7 \u00b0C @ Press: 760 Torr", "Melting Point": "-4 \u00b0C", "Density": "1.0396 g/cm\u00b3 @ Temp: 20 \u00b0C"}}