{"cas_no": "93-16-3", "cn_name": "\u5f02\u4e01\u9999\u915a\u7532\u919a", "en_name": ["Methylisoeugenol", "Benzene, 1,2-dimethoxy-4-(1-propen-1-yl)-", "Benzene, 1,2-dimethoxy-4-propenyl-", "Benzene, 1,2-dimethoxy-4-(1-propenyl)-", "Veratrole, 4-propenyl-", "1,2-Dimethoxy-4-(1-propen-1-yl)benzene", "Isoeugenol methyl ether", "Isoeugenyl methyl ether", "Isohomogenol", "4-Propenylveratrole", "Methylisoeugenol", "O-Methylisoeugenol", "1-(3,4-Dimethoxyphenyl)-1-propene", "3,4-Dimethoxypropenylbenzene", "4-Propenyl-1,2-dimethoxybenzene", "1-Veratryl-1-propene", "1,2-Dimethoxy-4-(1-propenyl)benzene", "3-(3,4-Dimethoxyphenyl)-2-propene", "4-(1-Propenyl)-1,2-dimethoxybenzene", "NSC 46111", "3,4-Dimethoxy-\u03b2-methylstyrene", "1,2-Dimethoxy-4-propeneylbenzene"], "SMILES": "O(C)C1=C(OC)C=CC(C=CC)=C1", "physical_data": {"Molecular Weight": "178.23", "Molecular Formula": "C11H14O2", "Boiling Point": "270.5 \u00b0C", "Melting Point": "18 \u00b0C", "Density": "1.0504 g/cm\u00b3 @ Temp: 25 \u00b0C"}}