{"cas_no": "93-11-8", "cn_name": "2-\u8418\u78fa\u9170\u6c2f", "en_name": ["2-Naphthalenesulfonyl chloride", "2-Naphthalenesulfonyl chloride", "\u03b2-Naphthalenesulfochloride", "2-Naphthylsulfonyl chloride", "\u03b2-Naphthalenesulfonyl chloride", "Naphthalene-2-sulfonic acid chloride", "\u03b2-Naphthylsulfonyl chloride", "2-Naphthalenylsulfonyl chloride", "NSC 133893"], "SMILES": "S(Cl)(=O)(=O)C1=CC2=C(C=C1)C=CC=C2", "physical_data": {"Molecular Weight": "226.68", "Molecular Formula": "C10H7ClO2S", "Melting Point": "81 \u00b0C"}}