{"cas_no": "93-14-1", "cn_name": "\u6108\u521b\u7518\u6cb9\u919a", "en_name": ["Guaifenesin", "1,2-Propanediol, 3-(2-methoxyphenoxy)-", "1,2-Propanediol, 3-(o-methoxyphenoxy)-", "3-(2-Methoxyphenoxy)-1,2-propanediol", "SL 90", "Aeronesin", "Aresol", "Creson", "1,2-Dihydroxy-3-(2-methoxyphenoxy)propane", "Dilyn", "Glycerin guaiacolate", "Glycerol guaiacolate", "Glycerol \u03b1-(o-methoxyphenyl)ether", "Glyceryl guaiacolate", "\u03b1-Glyceryl guaiacolate ether", "Glyceryl guaiacyl ether", "Glycotuss", "\u03b1-Glyceryl guaiacol ether", "Guaiacuran", "Guaiacurane", "Guaiacyl glyceryl ether", "Guaiamar", "Guaianesin", "Guaiphenesin", "Guaiphenesine", "Guajacuran", "Guayanesin", "3-(o-Methoxyphenoxy)-1,2-propanediol", "o-Methoxyphenyl glyceryl ether", "Methphenoxydiol", "Myocaine", "Neuroton", "Neurotone", "Oresol", "Oreson", "Reorganin", "Respenyl", "Resyl", "Ritussin", "Guaiacol glyceryl ether", "Glycerylguaiacol", "Guaiacol glycerol ether", "Glyceryl guaiacolate ether", "Glycerol \u03b1-guaiacyl ether", "Glycerol \u03b1-(2-methoxyphenyl) ether", "XL 90", "Myoscain", "Relaxil G", "Calmipan", "Tenntuss", "Tulyn", "Sirotol", "Guaiacol glycerin ether", "Guaifenesin", "Muskurelax", "Myocain", "Hytuss", "Miocurin", "Guanar", "My 301", "Robitussin", "Glyceryl guaiacol ether", "Trecid", "Hustosil", "racemic-Guaifenesin", "Guaifenesine", "Tenntus", "Actifed C", "Equicol", "Colrex Expectorant", "Amonidren", "2-G", "Glycodex", "NSC 62112", "Organidin NR", "Mucinex", "Giafen", "MeSH ID: D006140"], "SMILES": "O(CC(CO)O)C1=C(OC)C=CC=C1", "physical_data": {"Molecular Weight": "198.22", "Molecular Formula": "C10H14O4", "Boiling Point": "215 \u00b0C @ Press: 19 Torr", "Melting Point": "78.5-79 \u00b0C"}}