{"cas_no": "93-19-6", "cn_name": "2-\u5f02\u4e01\u57fa\u55b9\u5549", "en_name": ["2-Isobutylquinoline", "Quinoline, 2-(2-methylpropyl)-", "Quinoline, 2-isobutyl-", "2-(2-Methylpropyl)quinoline", "2-Isobutylquinoline"], "SMILES": "C(C(C)C)C1=NC2=C(C=C1)C=CC=C2", "physical_data": {"Molecular Weight": "185.26", "Molecular Formula": "C13H15N", "Boiling Point": "157 \u00b0C @ Press: 22 Torr"}}