{"cas_no": "93-18-5", "cn_name": "2-\u8418\u4e59\u919a", "en_name": ["2-Ethoxynaphthalene", "Naphthalene, 2-ethoxy-", "2-Ethoxynaphthalene", "Bromelia", "Ethyl \u03b2-naphtholate", "Ethyl \u03b2-naphthyl ether", "\u03b2-Naphthol ethyl ether", "\u03b2-Naphthyl ethyl ether", "Nerolin II", "Nerolin (new)", "Bromelia (compound)", "Ethyl 2-naphthyl ether", "Nerolin Bromelia", "NSC 1319"], "SMILES": "O(CC)C1=CC2=C(C=C1)C=CC=C2", "physical_data": {"Molecular Weight": "172.22", "Molecular Formula": "C12H12O", "Boiling Point": "282 \u00b0C", "Melting Point": "37.5 \u00b0C"}}