{"cas_no": "93-10-7", "cn_name": "\u55b9\u54ea\u5576\u9178", "en_name": ["Quinaldic acid", "2-Quinolinecarboxylic acid", "Quinaldic acid", "Quinaldinic acid", "2-Carboxyquinoline", "2-Quinolinylcarboxylic acid", "NSC 4882", "Quinolin-2-carboxylic acid", "2-Quinolinic acid"], "SMILES": "C(O)(=O)C1=NC2=C(C=C1)C=CC=C2", "physical_data": {"Molecular Weight": "173.17", "Molecular Formula": "C10H7NO2", "Melting Point": "156 \u00b0C"}}