{"cas_no": "93-17-4", "cn_name": "3,4-\u4e8c\u7532\u6c27\u57fa\u82ef\u4e59\u8148", "en_name": ["3,4-Dimethoxybenzeneacetonitrile", "Benzeneacetonitrile, 3,4-dimethoxy-", "Acetonitrile, (3,4-dimethoxyphenyl)-", "3,4-Dimethoxybenzeneacetonitrile", "(3,4-Dimethoxyphenyl)acetonitrile", "Homoveratronitrile", "3,4-Dimethoxybenzyl cyanide", "Veratryl cyanide", "2-(3,4-Dimethoxyphenyl)acetonitrile", "NSC 6324", "3,4-Methyleneoxyphenyl acetonitrile"], "SMILES": "O(C)C1=C(OC)C=CC(CC#N)=C1", "physical_data": {"Molecular Weight": "177.20", "Molecular Formula": "C10H11NO2", "Boiling Point": "171-178 \u00b0C @ Press: 10 Torr", "Melting Point": "64-65 \u00b0C"}}