{"cas_no": "93-26-5", "cn_name": "2-\u4e59\u9170\u6c28\u57fa\u82ef\u7532\u919a", "en_name": ["N-(2-Methoxyphenyl)acetamide", "Acetamide, N-(2-methoxyphenyl)-", "o-Acetanisidide", "N-(2-Methoxyphenyl)acetamide", "o-Methoxyacetanilide", "2\u2032-Methoxyacetanilide", "N-Acetyl-o-anisidine", "2-(Acetylamino)anisole", "N-Acetyl-2-methoxyaniline", "2-Acetamidoanisole", "NSC 4004", "2-N-Acetylaminomethoxybenzene"], "SMILES": "N(C(C)=O)C1=C(OC)C=CC=C1", "physical_data": {"Molecular Weight": "165.19", "Molecular Formula": "C9H11NO2", "Boiling Point": "304 \u00b0C", "Melting Point": "87.5 \u00b0C"}}