{"cas_no": "93-25-4", "cn_name": "2-\u7532\u6c27\u57fa\u82ef\u4e59\u9178", "en_name": ["2-Methoxyphenylacetic acid", "Benzeneacetic acid, 2-methoxy-", "Acetic acid, (o-methoxyphenyl)-", "2-Methoxybenzeneacetic acid", "(o-Methoxyphenyl)acetic acid", "2-Methoxyphenylacetic acid", "o-Anisylacetic acid", "NSC 110708", "NSC 16257", "[2-(Methyloxy)phenyl]acetic acid", "o-Methoxybenzeneacetic acid"], "SMILES": "C(C(O)=O)C1=C(OC)C=CC=C1", "physical_data": {"Molecular Weight": "166.17", "Molecular Formula": "C9H10O3", "Melting Point": "124 \u00b0C"}}