{"cas_no": "93-20-9", "cn_name": "2-(2-\u8418\u6c27\u57fa)\u4e59\u9187", "en_name": ["2-(2-Naphthoxy)ethanol", "Ethanol, 2-(2-naphthalenyloxy)-", "Ethanol, 2-(2-naphthyloxy)-", "2-(2-Naphthalenyloxy)ethanol", "Anavenol", "Ethylene glycol mono-2-naphthyl ether", "2-(\u03b2-Hydroxyethoxy)naphthalene", "\u03b2-Hydroxyethyl 2-naphthyl ether", "\u03b2-Naphthoxyethanol", "2-(2-Naphthyloxy)ethanol", "2-(2-Hydroxyethoxy)naphthalene", "2-(2-Naphthoxy)ethanol", "2-(Naphthalen-2-yloxy)ethanol", "NSC 37574", "2-(2-Naphthyloxy)ethyl alcohol", "2-(Naphthalen-2-yloxy)ethan-1-ol"], "SMILES": "O(CCO)C1=CC2=C(C=C1)C=CC=C2", "physical_data": {"Molecular Weight": "188.22", "Molecular Formula": "C12H12O2", "Melting Point": "76.7 \u00b0C"}}