{"cas_no": "93-28-7", "cn_name": "\u4e59\u9178\u4e01\u9999\u915a\u916f", "en_name": ["Eugenyl acetate", "Phenol, 2-methoxy-4-(2-propen-1-yl)-, 1-acetate", "Phenol, 4-allyl-2-methoxy-, acetate", "Eugenol acetate", "Phenol, 2-methoxy-4-(2-propenyl)-, acetate", "Aceteugenol", "Acetyleugenol", "Eugenyl acetate", "4-Allyl-2-methoxyphenyl acetate", "O-Acetyleugenol", "NSC 1242", "2-Methoxy-4-(2-propenyl)phenol acetate", "(2-Methoxy-4-prop-2-enylphenyl) acetate", "2-Methoxy-4-(prop-2-en-1-yl)phenyl acetate"], "SMILES": "O(C(C)=O)C1=C(OC)C=C(CC=C)C=C1", "physical_data": {"Molecular Weight": "206.24", "Molecular Formula": "C12H14O3", "Boiling Point": "281 \u00b0C", "Melting Point": "30.5 \u00b0C", "Density": "1.0806 g/cm\u00b3 @ Temp: 20 \u00b0C"}}