{"cas_no": "93-37-8", "cn_name": "2,7-\u4e8c\u7532\u57fa\u55b9\u5549", "en_name": ["2,7-Dimethylquinoline", "Quinoline, 2,7-dimethyl-", "2,7-Dimethylquinoline", "m-Toluquinaldine", "NSC 5240"], "SMILES": "CC1=CC2=C(C=CC(C)=N2)C=C1", "physical_data": {"Molecular Weight": "157.21", "Molecular Formula": "C11H11N", "Boiling Point": "264.5 \u00b0C", "Melting Point": "61 \u00b0C"}}