{"cas_no": "93-39-0", "cn_name": "\u8335\u828b\u82f7", "en_name": ["Skimmin", "2H-1-Benzopyran-2-one, 7-(\u03b2-D-glucopyranosyloxy)-", "Skimmin", "7-(\u03b2-D-Glucopyranosyloxy)-2H-1-benzopyran-2-one", "7-Hydroxycoumarin 7-glucoside", "Skimmine", "Umbelliferone glucoside", "Umbelliferone \u03b2-D-glucopyranoside", "Umbelliferone 7-O-\u03b2-D-glucopyranoside", "Umbelliferone 7-\u03b2-D-glucoside", "Skimin", "7-(\u03b2-D-Glucosyloxy)coumarin", "NSC 267696", "Umbelliferone 7-O-\u03b2-D-glucoside", "Coumarin 7-O-\u03b2-D-glucoside", "7-O-\u03b2-D-Glucopyranosyl-umbelliferone"], "SMILES": "O(C=1C=C2C(=CC1)C=CC(=O)O2)C3OC(CO)C(O)C(O)C3O", "physical_data": {"Molecular Weight": "324.28", "Molecular Formula": "C15H16O8", "Melting Point": "220 \u00b0C"}}