{"cas_no": "93-35-6", "cn_name": "7-\u7f9f\u57fa\u9999\u8c46\u7d20", "en_name": ["Umbelliferone", "2H-1-Benzopyran-2-one, 7-hydroxy-", "Coumarin, 7-hydroxy-", "7-Hydroxy-2H-1-benzopyran-2-one", "Hydrangine", "7-Hydroxycoumarin", "7-Oxycoumarin", "Skimmetin", "Skimmetine", "Umbelliferone", "Hydrangin", "Umbelliferon", "7-Hydroxy-2-chromenone", "7-Hydroxy-2H-chromen-2-one", "NSC 19790", "7-Hydroxylcoumarin"], "SMILES": "OC=1C=C2C(C=CC(=O)O2)=CC1", "physical_data": {"Molecular Weight": "162.14", "Molecular Formula": "C9H6O3", "Melting Point": "230.5 \u00b0C"}}