{"cas_no": "93-42-5", "cn_name": "\u5def\u57fa\u4e59\u9170\u8418\u80fa", "en_name": ["Thionalide", "Acetamide, 2-mercapto-N-2-naphthalenyl-", "Acetamide, 2-mercapto-N-2-naphthyl-", "2-Mercapto-N-2-naphthalenylacetamide", "Thioglycolic-\u03b2-aminonaphthalide", "Thionalide", "2-Mercapto-N-2-naphthylacetamide", "Thiolanilide", "N-2-Naphthyl-2-mercaptoacetamide", "Thionalid", "Thioglycolic acid \u03b2-naphthalide", "N-(2-Naphthyl)mercaptoacetamide", "NSC 7327"], "SMILES": "N(C(CS)=O)C1=CC2=C(C=C1)C=CC=C2", "physical_data": {"Molecular Weight": "217.29", "Molecular Formula": "C12H11NOS", "Melting Point": "111.5 \u00b0C"}}