{"cas_no": "93-40-3", "cn_name": "3,4-\u4e8c\u7532\u6c27\u57fa\u82ef\u4e59\u9178", "en_name": ["(3,4-Dimethoxyphenyl)acetic acid", "Benzeneacetic acid, 3,4-dimethoxy-", "Acetic acid, (3,4-dimethoxyphenyl)-", "3,4-Dimethoxybenzeneacetic acid", "Homoveratric acid", "(3,4-Dimethoxyphenyl)acetic acid", "NSC 2753", "NSC 27897", "2-(3,4-Dimethoxyphenyl)acetate", "2-(3,4-Dimethoxyphenyl)acetic acid"], "SMILES": "O(C)C1=C(OC)C=C(CC(O)=O)C=C1", "physical_data": {"Molecular Weight": "196.20", "Molecular Formula": "C10H12O4", "Melting Point": "98 \u00b0C"}}