{"cas_no": "93-44-7", "cn_name": "\u82ef\u7532\u9178\u8418\u915a\u916f", "en_name": ["2-Naphthalenol, 2-benzoate", "2-Naphthalenol, 2-benzoate", "2-Naphthol, benzoate", "2-Naphthalenol, benzoate", "Benzonaphthol", "2-Benzoyloxynaphthalene", "\u03b2-Naphthyl benzoate", "2-Naphthyl benzoate", "Betabenzon", "NSC 5537", "Naphthalen-2-yl benzoate", "PPC 016"], "SMILES": "O(C(=O)C1=CC=CC=C1)C2=CC3=C(C=C2)C=CC=C3", "physical_data": {"Molecular Weight": "248.28", "Molecular Formula": "C17H12O2", "Melting Point": "107 \u00b0C"}}