{"cas_no": "93-45-8", "cn_name": "N-(\u5bf9\u7f9f\u57fa\u82ef\u57fa)-2-\u8418\u80fa", "en_name": ["4-(2-Naphthalenylamino)phenol", "Phenol, 4-(2-naphthalenylamino)-", "Phenol, p-(2-naphthylamino)-", "4-(2-Naphthalenylamino)phenol", "p-Hydroxyphenyl-\u03b2-naphthylamine", "p-Hydroxyphenyl-2-naphthylamine", "p-Hydroxyneozon", "N-(p-Hydroxyphenyl)-\u03b2-naphthylamine", "p-(\u03b2-Naphthylamino)phenol", "p-Hydroxyneozone", "p-(2-Naphthylamino)phenol", "Paraoxyneozone", "4-Hydroxyphenyl-\u03b2-naphthylamine", "N-(p-Hydroxyphenyl)-2-naphthylamine", "4-(2-Naphthylamino)phenol", "N-(4-Hydroxyphenyl)-2-naphthylamine", "NSC 15372", "NSC 21065", "2-(4-Hydroxyphenylamino)-naphthalene"], "SMILES": "N(C1=CC2=C(C=C1)C=CC=C2)C3=CC=C(O)C=C3", "physical_data": {"Molecular Weight": "235.28", "Molecular Formula": "C16H13NO", "Boiling Point": "250 \u00b0C @ Press: 4 Torr", "Melting Point": "140 \u00b0C"}}