{"cas_no": "93-54-9", "cn_name": "1-\u82ef\u4e19\u9187", "en_name": ["1-Phenyl-1-propanol", "Benzenemethanol, \u03b1-ethyl-", "Benzyl alcohol, \u03b1-ethyl-", "\u03b1-Ethylbenzenemethanol", "\u03b1-Ethylbenzyl alcohol", "Felicur", "Phenylchol", "1-Phenylpropyl alcohol", "Unichol", "1-Propanol, 1-phenyl-", "1-Phenyl-1-hydroxypropane", "1-Phenyl-1-propanol", "Phenyl ethyl carbinol", "\u03c9-Ethylbenzyl alcohol", "SH 261", "Ethyl phenyl carbinol", "\u03b1-Hydroxypropylbenzene", "Ejibil", "Livonal", "Phenylcholon", "Fenicol", "Felitrope", "Bilergon", "Carbicol", "Choleda", "Fepar", "Gallenperlen", "Epatoxfen", "1-Phenyl-n-propanol", "(RS)-1-Phenylpropan-1-ol", "(\u00b1)-1-Phenyl-1-propanol", "(\u00b1)-\u03b1-Ethylbenzyl alcohol", "(RS)-1-Phenylpropanol", "1-Hydroxy-1-phenylpropane", "Phenycholon", "Phenychol", "NSC 25504", "NSC 41708"], "SMILES": "C(CC)(O)C1=CC=CC=C1", "physical_data": {"Molecular Weight": "136.19", "Molecular Formula": "C9H12O", "Boiling Point": "219 \u00b0C", "Density": "0.9938 g/cm\u00b3 @ Temp: 23 \u00b0C"}}