{"cas_no": "93-56-1", "cn_name": "\u82ef\u57fa-1,2-\u4e59\u4e8c\u9187", "en_name": ["1-Phenyl-1,2-ethanediol", "1,2-Ethanediol, 1-phenyl-", "1,2-Ethanediol, phenyl-", "1-Phenyl-1,2-ethanediol", "\u03b1,\u03b2-Dihydroxyethylbenzene", "Styrene glycol", "Styrolyl alcohol", "Phenylethylene glycol", "Phenyl glycol", "1,2-Dihydroxy-1-phenylethane", "(1,2-Dihydroxyethyl)benzene", "1-Phenylethylene glycol", "\u03b2-Hydroxy-\u03b2-phenylethanol", "1,2-Dihydroxy-2-phenylethane", "(RS)-1-Phenyl-1,2-ethanediol", "(\u00b1)-1-Phenyl-1,2-ethanediol", "(\u00b1)-Phenyl-1,2-ethanediol", "(\u00b1)-Styrene glycol", "NSC 406601", "cis-1-Phenyl-1,2-ethanediol", "(\u00b1)-Phenyl glycol", "1-Phenyl-1,2-glycol"], "SMILES": "C(CO)(O)C1=CC=CC=C1", "physical_data": {"Molecular Weight": "138.16", "Molecular Formula": "C8H10O2", "Boiling Point": "273 \u00b0C", "Melting Point": "67.5 \u00b0C", "Density": "1.225 g/cm\u00b3 @ Temp: 0 \u00b0C"}}