{"cas_no": "93-53-8", "cn_name": "2-\u82ef\u57fa\u4e19\u919b", "en_name": ["2-Phenylpropanal", "Benzeneacetaldehyde, \u03b1-methyl-", "Hydratropaldehyde", "\u03b1-Methylbenzeneacetaldehyde", "Hyacinthal", "Hydratropic aldehyde", "\u03b1-Methylphenylacetaldehyde", "\u03b1-Methyl-\u03b1-toluic aldehyde", "2-Phenylpropanal", "Cumene aldehyde", "\u03b1-Phenylpropionaldehyde", "2-Phenylpropionaldehyde", "\u03b1-Formylethylbenzene", "(\u00b1)-\u03b1-Phenylpropionaldehyde", "(\u00b1)-2-Phenylpropanal", "(\u00b1)-Hydratropic aldehyde", "(\u00b1)-2-Phenylpropionaldehyde", "2-Phenylpropanaldehyde", "NSC 5231"], "SMILES": "C(C=O)(C)C1=CC=CC=C1", "physical_data": {"Molecular Weight": "134.18", "Molecular Formula": "C9H10O", "Boiling Point": "203.5 \u00b0C", "Melting Point": "223 \u00b0C", "Density": "1.140 g/cm\u00b3 @ Temp: 0 \u00b0C"}}