{"cas_no": "93-51-6", "cn_name": "2-\u7532\u6c27\u57fa-4-\u7532\u57fa\u82ef\u915a", "en_name": ["2-Methoxy-4-methylphenol", "Phenol, 2-methoxy-4-methyl-", "Creosol", "p-Cresol, 2-methoxy-", "2-Methoxy-4-methylphenol", "Homoguaiacol", "4-Hydroxy-3-methoxy-1-methylbenzene", "4-Hydroxy-3-methoxytoluene", "2-Methoxy-p-cresol", "p-Methylguaiacol", "4-Methylguaiacol", "p-Creosol", "4-Methyl-2-methoxyphenol", "3-Methoxy-4-hydroxytoluene", "NSC 4969", "3-Methoxy-4-hydroxybenzaldhyde", "Methyl guaiacol", "Methylguaiacol-4"], "SMILES": "O(C)C1=C(O)C=CC(C)=C1", "physical_data": {"Molecular Weight": "138.16", "Molecular Formula": "C8H10O2", "Boiling Point": "221 \u00b0C", "Melting Point": "5.5 \u00b0C", "Density": "1.0789 g/cm\u00b3 @ Temp: 38.60001953125 \u00b0C"}}