{"cas_no": "93-52-7", "cn_name": "1,2-\u4e8c\u6eb4\u4e59\u57fa\u82ef", "en_name": ["(1,2-Dibromoethyl)benzene", "Benzene, (1,2-dibromoethyl)-", "(1,2-Dibromoethyl)benzene", "\u03b1,\u03b2-Dibromoethylbenzene", "Dowspray 9", "1,2-Dibromo-2-phenylethane", "1,2-Dibromo-1-phenylethane", "1-Phenyl-1,2-dibromoethane", "1,2-Dibromophenylethane", "vic-Styrene dibromide", "NSC 62438"], "SMILES": "C(CBr)(Br)C1=CC=CC=C1", "physical_data": {"Molecular Weight": "263.96", "Molecular Formula": "C8H8Br2", "Boiling Point": "133 \u00b0C", "Melting Point": "75 \u00b0C"}}