{"cas_no": "93-59-4", "cn_name": "\u8fc7\u6c27\u5316\u6c22\u82ef\u7532\u9170", "en_name": ["Perbenzoic acid", "Benzenecarboperoxoic acid", "Peroxybenzoic acid", "Benzoyl hydrogen peroxide", "Benzoyl hydroperoxide", "Perbenzoic acid", "Hydroperoxide, benzoyl", "Peroxobenzoic acid", "PBA"], "SMILES": "C(OO)(=O)C1=CC=CC=C1", "physical_data": {"Molecular Weight": "138.12", "Molecular Formula": "C7H6O3", "Boiling Point": "105 \u00b0C", "Melting Point": "42 \u00b0C"}}