{"cas_no": "93-55-0", "cn_name": "\u82ef\u4e19\u916e", "en_name": ["Propiophenone", "1-Propanone, 1-phenyl-", "Propiophenone", "1-Phenyl-1-propanone", "Ethyl phenyl ketone", "Phenyl ethyl ketone", "Propionylbenzene", "NSC 16937", "Propriophenone"], "SMILES": "C(CC)(=O)C1=CC=CC=C1", "physical_data": {"Molecular Weight": "134.18", "Molecular Formula": "C9H10O", "Boiling Point": "218.0 \u00b0C @ Press: 760 Torr", "Melting Point": "21 \u00b0C", "Density": "1.008 g/cm\u00b3 @ Temp: 16 \u00b0C"}}