{"cas_no": "93-50-5", "cn_name": "4-\u6c2f-2-\u7532\u6c27\u57fa\u82ef\u80fa", "en_name": ["4-Chloro-2-methoxybenzenamine", "Benzenamine, 4-chloro-2-methoxy-", "o-Anisidine, 4-chloro-", "4-Chloro-2-methoxybenzenamine", "5-Chloro-2-aminoanisole", "4-Chloro-o-anisidine", "4-Chloro-2-methoxyaniline", "p-Chloro-o-anisidine", "4-Chloro-2-anisidine", "2-Methoxy-4-chloroaniline", "1-Amino-4-chloro-2-methoxybenzene", "2-Amino-5-chloroanisole", "(4-Chloro-2-methoxyphenyl)amine"], "SMILES": "O(C)C1=C(N)C=CC(Cl)=C1", "physical_data": {"Molecular Weight": "157.60", "Molecular Formula": "C7H8ClNO", "Boiling Point": "260 \u00b0C", "Melting Point": "52 \u00b0C"}}