{"cas_no": "93-58-3", "cn_name": "\u82ef\u7532\u9178\u7532\u916f", "en_name": ["Methyl benzoate", "Benzoic acid, methyl ester", "Methyl benzenecarboxylate", "Methyl benzoate", "Niobe oil", "Clorius", "NSC 9394"], "SMILES": "C(OC)(=O)C1=CC=CC=C1", "physical_data": {"Molecular Weight": "136.15", "Molecular Formula": "C8H8O2", "Boiling Point": "198-200 \u00b0C", "Melting Point": "-12.3 \u00b0C", "Density": "1.094 g/cm\u00b3 @ Temp: 15 \u00b0C"}}