{"cas_no": "93-69-6", "cn_name": "1-\u90bb\u7532\u82ef\u53cc\u80cd", "en_name": ["o-Tolylbiguanide", "Imidodicarbonimidic diamide, N-(2-methylphenyl)-", "Biguanide, 1-o-tolyl-", "N-(2-Methylphenyl)imidodicarbonimidic diamide", "Sopanox", "o-Tolyldiguanide", "o-Tolylbiguanide", "Aliant", "1-o-Tolylbiguanide", "Vulkacit 1000", "Eponoc B", "Nocceler BG", "Accelerator 1000", "Proventine 17", "1-o-Tolyldiguanide", "NSC 164906", "NSC 51980", "Dimotol", "Aradur 2844", "Casamine OTB", "Accelerator BG", "1-(Diaminomethylidene)-2-(2-methylphenyl)guanidine", "1-Carbamimidamido-N-(2-methylphenyl)methanimidamide", "1-(2-Methylphenyl)biguanide", "Dyhard OTB"], "SMILES": "N(C(NC(=N)N)=N)C1=C(C)C=CC=C1", "physical_data": {"Molecular Weight": "191.23", "Molecular Formula": "C9H13N5", "Melting Point": "142-144 \u00b0C"}}