{"cas_no": "93-67-4", "cn_name": "2-\u6c28\u57fa-4-\u6c2f\u4e8c\u82ef\u919a", "en_name": ["5-Chloro-2-phenoxybenzenamine", "Benzenamine, 5-chloro-2-phenoxy-", "Aniline, 5-chloro-2-phenoxy-", "5-Chloro-2-phenoxybenzenamine", "5-Chloro-2-phenoxyaniline", "4-Chloro-2-aminodiphenyl ether", "2-Amino-4-chlorodiphenyl ether", "NSC 59759", "5-Chloro-2-phenoxyphenylamine", "1-Amino-5-chloro-2-phenoxybenzene"], "SMILES": "O(C1=C(N)C=C(Cl)C=C1)C2=CC=CC=C2", "physical_data": {"Molecular Weight": "219.67", "Molecular Formula": "C12H10ClNO", "Boiling Point": "190-192 \u00b0C @ Press: 8 Torr", "Melting Point": "39-41 \u00b0C"}}