{"cas_no": "93-61-8", "cn_name": "N-\u7532\u57fa\u7532\u9170\u82ef\u80fa", "en_name": ["N-Methylformanilide", "Formamide, N-methyl-N-phenyl-", "Formanilide, N-methyl-", "N-Methyl-N-phenylformamide", "N-Methylformanilide", "N-Methyl-N-formylaniline", "N-Formyl-N-methylaniline", "N-Phenyl-N-methylformamide", "Methylphenylformamide", "NSC 3828"], "SMILES": "N(C=O)(C)C1=CC=CC=C1", "physical_data": {"Molecular Weight": "135.16", "Molecular Formula": "C8H9NO", "Boiling Point": "243 \u00b0C", "Melting Point": "14.5 \u00b0C"}}