{"cas_no": "93-60-7", "cn_name": "\u70df\u9178\u7532\u916f", "en_name": ["Methyl nicotinate", "3-Pyridinecarboxylic acid, methyl ester", "Nicotinic acid, methyl ester", "Methyl nicotinate", "Nicometh", "3-(Carbomethoxy)pyridine", "Methyl 3-pyridinecarboxylate", "3-(Methoxycarbonyl)pyridine", "m-(Methoxycarbonyl)pyridine", "NSC 13126", "NSC 403799"], "SMILES": "C(OC)(=O)C=1C=CC=NC1", "physical_data": {"Molecular Weight": "137.14", "Molecular Formula": "C7H7NO2", "Boiling Point": "204 \u00b0C", "Melting Point": "42.5 \u00b0C"}}