{"cas_no": "93-62-9", "cn_name": "N-\u7f9f\u4e59\u57fa\u4e9a\u80fa\u4e8c\u4e59\u9178", "en_name": ["(2-Hydroxyethyl)iminodiacetic acid", "Glycine, N-(carboxymethyl)-N-(2-hydroxyethyl)-", "Acetic acid, [(2-hydroxyethyl)imino]di-", "N-(Carboxymethyl)-N-(2-hydroxyethyl)glycine", "N-(2-Hydroxyethyl)iminodiacetic acid", "[(\u03b2-Hydroxyethyl)imino]diacetic acid", "(2-Hydroxyethyl)iminodiacetic acid", "HEIDA", "N-(\u03b2-Hydroxyethyl)iminodiacetic acid", "Ethanolamine-N,N-diacetic acid", "HIMDA", "NSC 18474", "Chelest EA", "Ethanoldiglycine", "HIDA", "Ethanoldiglycinic acid", "2-[(Carboxymethyl)(2-hydroxyethyl)amino]acetic acid", "2-[Carboxymethyl(2-hydroxyethyl)amino]acetic acid"], "SMILES": "N(CC(O)=O)(CC(O)=O)CCO", "physical_data": {"Molecular Weight": "177.16", "Molecular Formula": "C6H11NO5", "Melting Point": "170-172 \u00b0C"}}