{"cas_no": "93-68-5", "cn_name": "2'-\u7532\u57fa\u4e59\u9170\u4e59\u9170\u82ef\u80fa", "en_name": ["o-Acetoacetotoluidide", "Butanamide, N-(2-methylphenyl)-3-oxo-", "o-Acetoacetotoluidide", "N-(2-Methylphenyl)-3-oxobutanamide", "2-(Acetoacetylamino)toluene", "2\u2032-Methylacetoacetanilide", "o-Methylacetoacetanilide", "Acetoacetic acid 2-methylanilide", "2-Methylacetoacetanilide", "Acetoacetic acid o-toluidide", "NSC 7655", "N-(2-Methylphenyl)acetoacetamide", "N-Acetoacetyl-o-toluidine", "N-Acetoacetyl-2-methylaniline", "3-Oxo-N-o-tolyl-butyramide"], "SMILES": "N(C(CC(C)=O)=O)C1=C(C)C=CC=C1", "physical_data": {"Molecular Weight": "191.23", "Molecular Formula": "C11H13NO2", "Melting Point": "107-108 \u00b0C"}}