{"cas_no": "93-72-1", "cn_name": "2,4,5-\u6d95\u4e19\u9178", "en_name": ["Fenoprop", "Propanoic acid, 2-(2,4,5-trichlorophenoxy)-", "Propionic acid, 2-(2,4,5-trichlorophenoxy)-", "2-(2,4,5-Trichlorophenoxy)propanoic acid", "Color-Set", "Fenoprop", "Fruitone T", "Kurosal G", "Silvex", "Silvi-Rhap", "Sta-fast", "2-(2,4,5-Trichlorophenoxy)propionic acid", "2,4,5-TP", "2,4,5-Trichlorophenoxypropionic acid", "\u03b1-(2,4,5-Trichlorophenoxy)propionic acid", "Fenormone", "2,4,5-TCPP", "(\u00b1)-2-(2,4,5-Trichlorophenoxy)propionic acid", "(\u00b1)-Fenoprop", "(\u00b1)-Silvex", "2,4,5-Trichlorophenoxypropanoic acid", "2,4,5-TCPPA", "Phenoprop", "2-(2\u2032,4\u2032,5\u2032-Trichloro-phenoxy)-propionic acid"], "SMILES": "O(C(C(O)=O)C)C1=C(Cl)C=C(Cl)C(Cl)=C1", "physical_data": {"Molecular Weight": "269.51", "Molecular Formula": "C9H7Cl3O3", "Melting Point": "181.6 \u00b0C", "Density": "1.2085 g/cm\u00b3 @ Temp: 20 \u00b0C"}}