{"cas_no": "93-71-0", "cn_name": "\u8349\u6bd2\u6b7b\uff08\u4e8c\u4e19\u70ef\u8349\u80fa\uff09", "en_name": ["Allidochlor", "Acetamide, 2-chloro-N,N-di-2-propen-1-yl-", "Acetamide, N,N-diallyl-2-chloro-", "Acetamide, 2-chloro-N,N-di-2-propenyl-", "2-Chloro-N,N-di-2-propen-1-ylacetamide", "CP 6,343", "CDAA", "\u03b1-Chloro-N,N-diallylacetamide", "2-Chloro-N,N-diallylacetamide", "N,N-Diallyl-\u03b1-chloroacetamide", "N,N-Diallyl-2-chloroacetamide", "Randox", "Allidochlor", "N,N-Diallylchloroacetamide", "Alidochlor", "Alidochlore", "Lucaoxian", "2-Chloro-N,N-bis(prop-2-en-1-yl)acetamide"], "SMILES": "N(C(CCl)=O)(CC=C)CC=C", "physical_data": {"Molecular Weight": "173.64", "Molecular Formula": "C8H12ClNO", "Boiling Point": "92 \u00b0C @ Press: 2 Torr", "Melting Point": "145 \u00b0C", "Density": "1.088 g/cm\u00b3 @ Temp: 25 \u00b0C"}}