{"cas_no": "93-70-9", "cn_name": "2'-\u6c2f-N-\u4e59\u9170\u4e59\u9170\u82ef\u80fa", "en_name": ["N-(2-Chlorophenyl)-3-oxobutanamide", "Butanamide, N-(2-chlorophenyl)-3-oxo-", "Acetoacetanilide, 2\u2032-chloro-", "N-(2-Chlorophenyl)-3-oxobutanamide", "AAoC", "Acetoacet-o-chloroanilide", "o-Acetoacetochloroanilide", "2\u2032-Chloroacetoacetanilide", "o-Chloroacetoacetanilide", "Acetoacetyl-o-chloroanilide", "N-Acetoacetyl-2-chloroaniline", "N-(2-Chlorophenyl)acetoacetamide", "Acetoacetyl-2-chloroanilide", "Acetoacetic acid 2-chloroanilide", "Acetoacetic acid o-chloroanilide", "NSC 3913"], "SMILES": "N(C(CC(C)=O)=O)C1=C(Cl)C=CC=C1", "physical_data": {"Molecular Weight": "211.64", "Molecular Formula": "C10H10ClNO2", "Melting Point": "107-108 \u00b0C"}}