{"cas_no": "93-76-5", "cn_name": "2,4,5-\u4e09\u6c2f\u82ef\u6c27\u4e59\u9178", "en_name": ["Trichlorophenoxyacetic acid", "Acetic acid, 2-(2,4,5-trichlorophenoxy)-", "Acetic acid, (2,4,5-trichlorophenoxy)-", "2-(2,4,5-Trichlorophenoxy)acetic acid", "2,4,5-T", "Fortex", "Trioxon", "(2,4,5-Trichlorophenoxy)acetic acid", "Verton 2T", "BCF-Bushkiller", "Forst U 46", "Arbokan", "Trichlorophenoxyacetic acid", "NSC 430"], "SMILES": "O(CC(O)=O)C1=C(Cl)C=C(Cl)C(Cl)=C1", "physical_data": {"Molecular Weight": "255.48", "Molecular Formula": "C8H5Cl3O3", "Melting Point": "153 \u00b0C", "Density": "1.80 g/cm\u00b3 @ Temp: 20 \u00b0C"}}