{"cas_no": "93-85-6", "cn_name": "2-\u6c28\u57fa\u82ef\u5e76\u567b\u5511-6-\u7532\u9178", "en_name": ["2-Amino-6-benzothiazolecarboxylic acid", "6-Benzothiazolecarboxylic acid, 2-amino-", "2-Amino-6-benzothiazolecarboxylic acid", "2-Amino-6-carboxybenzothiazole", "NSC 39119", "2-Amino-1,3-benzothiazole-6-carboxylic acid", "2-Aminobenzo[d]thiazole-6-carboxylic acid"], "SMILES": "C(O)(=O)C=1C=C2C(=CC1)N=C(N)S2", "physical_data": {"Molecular Weight": "194.21", "Molecular Formula": "C8H6N2O2S", "Melting Point": "265 \u00b0C (decomp)"}}