{"cas_no": "93-89-0", "cn_name": "\u82ef\u7532\u9178\u4e59\u916f", "en_name": ["Ethyl benzoate", "Benzoic acid, ethyl ester", "Ethyl benzenecarboxylate", "Ethyl benzoate", "Benzoyl ethyl ether", "NSC 8884"], "SMILES": "C(OCC)(=O)C1=CC=CC=C1", "physical_data": {"Molecular Weight": "150.17", "Molecular Formula": "C9H10O2", "Boiling Point": "212 \u00b0C", "Melting Point": "-34 \u00b0C", "Density": "1.3202 g/cm\u00b3 @ Temp: 58 \u00b0C"}}