{"cas_no": "93-84-5", "cn_name": "5-\u785d\u57fa-2-\u82ef\u5e76\u54aa\u5511\u916e", "en_name": ["1,3-Dihydro-5-nitro-2H-benzimidazol-2-one", "2H-Benzimidazol-2-one, 1,3-dihydro-5-nitro-", "2-Benzimidazolinone, 5-nitro-", "1,3-Dihydro-5-nitro-2H-benzimidazol-2-one", "5-Nitrobenzimidazol-2-one", "5-Nitro-2-benzimidazolinone", "2-Hydroxy-5-nitrobenzimidazole", "NSC 10380", "5-Nitro-1,3-dihydrobenzimidazol-2-one", "5-Nitro-1,3-dihydro-2H-benzimidazol-2-one", "5-Nitro-1,3-dihydro-2H-benzo[d]imidazol-2-one", "5-Nitrobenzo[d]imidazol-2(3H)-one", "5-Nitro-1H-benzo[d]imidazol-2(3H)-one"], "SMILES": "N(=O)(=O)C=1C=C2C(=CC1)NC(=O)N2", "physical_data": {"Molecular Weight": "179.13", "Molecular Formula": "C7H5N3O3", "Melting Point": "308 \u00b0C"}}