{"cas_no": "93-99-2", "cn_name": "\u82ef\u7532\u9178\u82ef\u916f", "en_name": ["Phenyl benzoate", "Benzoic acid, phenyl ester", "Phenol, benzoate", "Phenyl benzoate", "NSC 37086", "Phenyl ester benzoic acid", "Phenoxy phenyl ketone"], "SMILES": "C(OC1=CC=CC=C1)(=O)C2=CC=CC=C2", "physical_data": {"Molecular Weight": "198.22", "Molecular Formula": "C13H10O2", "Boiling Point": "110-115 \u00b0C @ Press: 0.4 Torr", "Melting Point": "71 \u00b0C", "Density": "1.28 g/cm\u00b3"}}