{"cas_no": "93-91-4", "cn_name": "\u82ef\u7532\u9170\u4e19\u916e", "en_name": ["Benzoylacetone", "1,3-Butanedione, 1-phenyl-", "1-Phenyl-1,3-butanedione", "Acetoacetophenone", "Benzoylacetone", "Acetylbenzoylmethane", "2-Propanone, benzoyl-", "2-Acetylacetophenone", "1-Methyl-3-phenyl-1,3-propanedione", "1-Benzoyl-2-propanone", "\u03b1-Acetylacetophenone", "4-Phenyl-2,4-butanedione", "NSC 100655", "NSC 4015", "NSC 404283", "NSC 405722", "NSC 405723", "NSC 405724", "NSC 83580", "NSC 83581", "NSC 87898", "NSC 88942", "NSC 97232", "NSC 97233", "1-Phenylbutan-1,3-dione", "4-Oxo-4-phenylbutan-2-one", "1-Phenylbutane-1,3-dione"], "SMILES": "C(CC(C)=O)(=O)C1=CC=CC=C1", "physical_data": {"Molecular Weight": "162.19", "Molecular Formula": "C10H10O2", "Boiling Point": "261.5 \u00b0C", "Melting Point": "56 \u00b0C", "Density": "1.0560 g/cm\u00b3 @ Temp: 77.8 \u00b0C"}}