{"cas_no": "93-92-5", "cn_name": "\u4e59\u9178\u82cf\u5408\u9999\u916f", "en_name": ["1-Phenylethyl acetate", "Benzenemethanol, \u03b1-methyl-, 1-acetate", "Benzyl alcohol, \u03b1-methyl-, acetate", "Benzenemethanol, \u03b1-methyl-, acetate", "Gardeniol II", "Gardenol", "\u03b1-Methylbenzyl acetate", "\u03b1-Methylbenzyl alcohol, acetate", "Methyl phenyl carbinyl acetate", "sec-Phenylethyl acetate", "\u03b1-Phenylethyl acetate", "1-Phenylethyl acetate", "Methylphenylcarbinol acetate", "sec-Phenethyl acetate", "Styrallyl acetate", "Styrylallyl acetate", "\u03b1-Phenethyl acetate", "1-Acetoxy-1-phenylethane", "(\u00b1)-\u03b1-Phenethyl acetate", "dl-1-Phenylethyl acetate", "(\u00b1)-Styrallyl acetate", "\u03b1-Methylbenzenemethanol acetate", "(\u00b1)-\u03b1-Methylbenzyl acetate", "NSC 2397"], "SMILES": "C(OC(C)=O)(C)C1=CC=CC=C1", "physical_data": {"Molecular Weight": "164.20", "Molecular Formula": "C10H12O2", "Boiling Point": "222 \u00b0C", "Density": "1.0715 g/cm\u00b3 @ Temp: 25 \u00b0C"}}