{"cas_no": "93-97-0", "cn_name": "\u82ef\u7532\u9178\u9150", "en_name": ["Benzoic anhydride", "Benzoic acid, 1,1\u2032-anhydride", "Benzoic anhydride", "Benzoic acid, anhydride", "Benzoyl anhydride", "Benzoyl benzoate", "NSC 37116", "Bis(phenylcarbonyl)ether"], "SMILES": "C(OC(=O)C1=CC=CC=C1)(=O)C2=CC=CC=C2", "physical_data": {"Molecular Weight": "226.23", "Molecular Formula": "C14H10O3", "Boiling Point": "360 \u00b0C", "Melting Point": "42.5 \u00b0C"}}