{"cas_no": "93-98-1", "cn_name": "N-\u82ef\u7532\u9170\u66ff\u82ef\u80fa", "en_name": ["Benzanilide", "Benzamide, N-phenyl-", "Benzanilide", "N-Phenylbenzamide", "Benzoic acid anilide", "N-Benzoylaniline", "N-Phenylbenzenecarboxamide", "NSC 3131", "N-Phenylethylbenzamide", "PMSA 953"], "SMILES": "C(NC1=CC=CC=C1)(=O)C2=CC=CC=C2", "physical_data": {"Molecular Weight": "197.23", "Molecular Formula": "C13H11NO", "Boiling Point": "117-119 \u00b0C", "Melting Point": "163 \u00b0C"}}