{"cas_no": "93-90-3", "cn_name": "N-\u7532\u57fa-N-\u7f9f\u4e59\u57fa\u82ef\u80fa", "en_name": ["2-(Methylphenylamino)ethanol", "Ethanol, 2-(methylphenylamino)-", "Ethanol, 2-(N-methylanilino)-", "2-(Methylphenylamino)ethanol", "2-(N-Methylanilino)ethanol", "N-Methyl-N-phenyl-2-aminoethanol", "2-(N-Methyl-N-phenylamino)ethanol", "N-Methyl-N-(2-hydroxyethyl)aniline", "N-(2-Hydroxyethyl)-N-methylaniline", "N-Methyl-N-phenylethanolamine", "NSC 9274", "N-Phenyl-N-methyl-ethanolamine", "N-Hydroxyethyl-N-methylaniline", "N-Methyl-N-phenyl-2-hydroxyethylamine", "N-Methyl-N-hydroethyl aniline", "2-[Methyl(phenyl)amino]ethan-1-ol"], "SMILES": "N(CCO)(C)C1=CC=CC=C1", "physical_data": {"Molecular Weight": "151.21", "Molecular Formula": "C9H13NO", "Boiling Point": "128 \u00b0C @ Press: 1 Torr", "Melting Point": "77 \u00b0C"}}