{"cas_no": "930-28-9", "cn_name": "\u6c2f\u5316\u73af\u620a\u70f7", "en_name": ["Chlorocyclopentane", "Cyclopentane, chloro-", "Chlorocyclopentane", "Cyclopentyl chloride", "NSC 16930"], "SMILES": "ClC1CCCC1", "physical_data": {"Molecular Weight": "104.58", "Molecular Formula": "C5H9Cl", "Boiling Point": "114 \u00b0C", "Density": "1.0051 g/cm\u00b3 @ Temp: 20 \u00b0C"}}