{"cas_no": "930-27-8", "cn_name": "3-\u7532\u57fa\u544b\u5583", "en_name": ["3-Methylfuran", "Furan, 3-methyl-", "3-Methylfuran", "NSC 346905"], "SMILES": "CC=1C=COC1", "physical_data": {"Molecular Weight": "82.10", "Molecular Formula": "C5H6O", "Boiling Point": "66 \u00b0C", "Density": "0.923 g/cm\u00b3 @ Temp: 18 \u00b0C"}}