{"cas_no": "930-35-8", "cn_name": "1,3-\u4e8c\u786b\u9178-2-\u786b\u56e0", "en_name": ["1,3-Dithiole-2-thione", "1,3-Dithiole-2-thione", "Carbonic acid, trithio-, cyclic vinylene ester", "1,2-Ethenedithiol, cyclic trithiocarbonate", "Isotrithione", "1,3-Dithiolethione", "DT 827A", "Vinylene trithiocarbonate", "Dithiolene", "2H-1,3-Dithiole-2-thione"], "SMILES": "S=C1SC=CS1", "physical_data": {"Molecular Weight": "134.24", "Molecular Formula": "C3H2S3", "Boiling Point": "122-126 \u00b0C @ Press: 0.5 Torr", "Melting Point": "49.3-50.8 \u00b0C"}}