{"cas_no": "930-68-7", "cn_name": "2-\u73af\u5df1\u70ef-1-\u916e", "en_name": ["2-Cyclohexen-1-one", "2-Cyclohexen-1-one", "2-Cyclohexenone", "1-Cyclohexen-3-one", "3-Oxocyclohexene", "NSC 59710", "Cyclohexen-3-one", "Cyclohexenone"], "SMILES": "O=C1CCCC=C1", "physical_data": {"Molecular Weight": "96.13", "Molecular Formula": "C6H8O", "Boiling Point": "170 \u00b0C", "Melting Point": "-53 \u00b0C", "Density": "0.986 g/cm\u00b3 @ Temp: 20 \u00b0C"}}