{"cas_no": "930-37-0", "cn_name": "(\u7532\u6c27\u57fa\u7532\u57fa)\u73af\u6c27\u4e59\u70f7", "en_name": ["Methyl glycidyl ether", "Oxirane, 2-(methoxymethyl)-", "Propane, 1,2-epoxy-3-methoxy-", "Oxirane, (methoxymethyl)-", "2-(Methoxymethyl)oxirane", "Methyl glycidyl ether", "Glycidyl methyl ether", "Glycidol methyl ether", "1,2-Epoxy-3-methoxypropane", "3-Methoxypropylene oxide", "3-Methoxy-1,2-epoxypropane", "Denacol EX 131", "Epiol M", "(Methoxymethyl)oxirane", "(\u00b1)-Glycidyl methyl ether", "NSC 86950", "2,3-Epoxypropyl methyl ether", "(Rac) glycidyl methyl ether"], "SMILES": "C(OC)C1CO1", "physical_data": {"Molecular Weight": "88.11", "Molecular Formula": "C4H8O2", "Boiling Point": "113 \u00b0C", "Density": "0.9798 g/cm\u00b3 @ Temp: 25 \u00b0C"}}