{"cas_no": "930-88-1", "cn_name": "N-\u7532\u57fa\u9a6c\u6765\u9170\u4e9a\u80fa", "en_name": ["N-Methylmaleimide", "1H-Pyrrole-2,5-dione, 1-methyl-", "Maleimide, N-methyl-", "1-Methyl-1H-pyrrole-2,5-dione", "N-Methylmaleimide", "N-Methylmaleinimide", "N-Methylmaleimide", "NSC 57594", "N-Methylpyrrole-2,5-dione", "1-Methylpyrrole-2,5-dione", "1-Methyl-2,5-dihydro-1H-pyrrole-2,5-dione", "N-Methyl maleic imide"], "SMILES": "CN1C(=O)C=CC1=O", "physical_data": {"Molecular Weight": "111.10", "Molecular Formula": "C5H5NO2", "Boiling Point": "128 \u00b0C @ Press: 35 Torr", "Melting Point": "67 \u00b0C"}}