{"cas_no": "930-22-3", "cn_name": "\u73af\u6c27\u4e01\u70ef", "en_name": ["Vinyloxirane", "Oxirane, 2-ethenyl-", "1-Butene, 3,4-epoxy-", "Oxirane, ethenyl-", "2-Ethenyloxirane", "1,2-Epoxy-3-butene", "Butadiene monoxide", "Ethenyloxirane", "1,2-Oxido-3-butene", "3,4-Epoxy-1-butene", "Butadiene monoepoxide", "1,3-Butadiene oxide", "Vinyloxirane", "Butene 3,4-epoxide", "Butadiene epoxide", "1,3-Butadiene monooxide", "Butadiene monooxide", "2-Vinyloxirane", "Vinyl epoxide", "1,3-Butadiene monoepoxide", "Epoxybutadiene", "(\u00b1)-Vinyloxirane", "NSC 24251", "NSC 8023", "1,3-Butadiene monoxide"], "SMILES": "C(=C)C1CO1", "physical_data": {"Molecular Weight": "70.09", "Molecular Formula": "C4H6O", "Boiling Point": "68 \u00b0C", "Melting Point": "-135 \u00b0C", "Density": "0.9006 g/cm\u00b3 @ Temp: 25 \u00b0C"}}