{"cas_no": "930-73-4", "cn_name": "1-\u7532\u57fa\u5421\u5576\u7898\u76d0", "en_name": ["1-Methylpyridinium iodide", "Pyridinium, 1-methyl-, iodide (1:1)", "Pyridinium, 1-methyl-, iodide", "1-Methylpyridinium iodide", "Pyridine methiodide", "N-Methylpyridinium iodide", "1-Methylpyridin-1-ium iodide"], "SMILES": "C[N+]=1C=CC=CC1.[I-]", "physical_data": {"Molecular Weight": "", "Molecular Formula": "C6H8N.I", "Melting Point": "116 \u00b0C"}}