{"cas_no": "930-55-2", "cn_name": "N-\u4e9a\u785d\u57fa\u5421\u54af\u70f7", "en_name": ["N-Nitrosopyrrolidine", "Pyrrolidine, 1-nitroso-", "1-Nitrosopyrrolidine", "N-Nitrosopyrrolidine", "NSC 18797", "NPYR"], "SMILES": "N(=O)N1CCCC1", "physical_data": {"Molecular Weight": "100.12", "Molecular Formula": "C4H8N2O", "Boiling Point": "214 \u00b0C @ Press: 760 Torr", "Density": "1.10 g/cm\u00b3"}}