{"cas_no": "930-87-0", "cn_name": "1,2,5-\u4e09\u7532\u57fa\u5421\u54af\u5549", "en_name": ["1,2,5-Trimethyl-1H-pyrrole", "1H-Pyrrole, 1,2,5-trimethyl-", "Pyrrole, 1,2,5-trimethyl-", "1,2,5-Trimethyl-1H-pyrrole", "1,2,5-Trimethylpyrrole", "NSC 81220"], "SMILES": "CN1C(C)=CC=C1C", "physical_data": {"Molecular Weight": "109.17", "Molecular Formula": "C7H11N", "Boiling Point": "171 \u00b0C", "Density": "0.9166 g/cm\u00b3 @ Temp: 20 \u00b0C"}}