{"cas_no": "930-36-9", "cn_name": "1-\u7532\u57fa\u5421\u5511", "en_name": ["1-Methyl-1H-pyrazole", "1H-Pyrazole, 1-methyl-", "Pyrazole, 1-methyl-", "1-Methyl-1H-pyrazole", "1-Methylpyrazole"], "SMILES": "CN1C=CC=N1", "physical_data": {"Molecular Weight": "82.10", "Molecular Formula": "C4H6N2", "Boiling Point": "127 \u00b0C", "Density": "0.985 g/cm\u00b3 @ Temp: 20 \u00b0C"}}