{"cas_no": "930-62-1", "cn_name": "2,4-\u4e8c\u7532\u57fa\u54aa\u5511", "en_name": ["2,4-Dimethylimidazole", "1H-Imidazole, 2,5-dimethyl-", "Imidazole, 2,4-dimethyl-", "1H-Imidazole, 2,4-dimethyl-", "Imidazole, 2,4(or 2,5)-dimethyl-", "2,5-Dimethyl-1H-imidazole", "2,4-Dimethylimidazole", "2,5-Dimethylimidazole", "2,4-Dimethyl-1H-imidazole", "NSC 13192", "2-Methyl-4-methylimidazole"], "SMILES": "CC=1NC(C)=NC1", "physical_data": {"Molecular Weight": "96.13", "Molecular Formula": "C5H8N2", "Boiling Point": "&gt;145 \u00b0C @ Press: 14 Torr", "Melting Point": "137-142 \u00b0C"}}