{"cas_no": "930-33-6", "cn_name": "1,2-\u4e8c\u6c22-3H-1,2,4-\u4e09\u6c2e\u5511-3-\u916e", "en_name": ["2,4-Dihydro-3H-1,2,4-triazol-3-one", "3H-1,2,4-Triazol-3-one, 1,2-dihydro-", "\u03942-1,2,4-Triazolin-5-one", "s-Triazol-3-ol", "1,2-Dihydro-3H-1,2,4-triazol-3-one", "1H-1,2,4-Triazol-3-ol", "2,4-Dihydro-3H-1,2,4-triazol-3-one", "NSC 119861", "NSC 153380", "1,2-Dihydro-3H-1,2,4-triazole-3-one", "1,2-Dihydro-1,2,4-triazol-3-one"], "SMILES": "O=C1NC=NN1", "physical_data": {"Molecular Weight": "85.06", "Molecular Formula": "C2H3N3O", "Melting Point": "234-235 \u00b0C"}}