{"cas_no": "930-30-3", "cn_name": "2-\u73af\u620a\u70ef\u916e", "en_name": ["2-Cyclopenten-1-one", "2-Cyclopenten-1-one", "Cyclopenten-3-one", "2-Cyclopentenone", "1-Cyclopenten-3-one", "NSC 73117", "1-Cyclopenten-5-one", "Cyclopent-2-en-1-one"], "SMILES": "O=C1CCC=C1", "physical_data": {"Molecular Weight": "82.10", "Molecular Formula": "C5H6O", "Boiling Point": "40-45 \u00b0C @ Press: 15 Torr", "Density": "1.004 g/cm\u00b3 @ Temp: 20 \u00b0C"}}