{"cas_no": "930-21-2", "cn_name": "2-\u6c2e\u6742\u73af\u4e01\u916e", "en_name": ["2-Azetidinone", "2-Azetidinone", "\u03b2-Alanine, lactam", "\u03b2-Propiolactam", "2-Azetidone", "Propiolactam", "3-Aminopropionic acid lactam", "3-Aminopropanoic acid lactam", "2-Oxoazetidine"], "SMILES": "O=C1CCN1", "physical_data": {"Molecular Weight": "71.08", "Molecular Formula": "C3H5NO", "Boiling Point": "106 \u00b0C @ Press: 15 Torr", "Melting Point": "73-74 \u00b0C"}}