{"cas_no": "930-02-9", "cn_name": "\u5341\u516b\u70f7\u57fa\u4e59\u70ef\u57fa\u919a", "en_name": ["Octadecyl vinyl ether", "Octadecane, 1-(ethenyloxy)-", "Ether, octadecyl vinyl", "1-(Ethenyloxy)octadecane", "Vinyl stearyl ether", "Octadecyl vinyl ether", "Stearyl vinyl ether", "Vinyl octadecyl ether", "Rapi-Cure ODVE", "NSC 111998", "1-(Vinyloxo)octadecane", "1-Ethenoxyoctadecane"], "SMILES": "C(CCCCCCCCCC)CCCCCCCOC=C", "physical_data": {"Molecular Weight": "296.53", "Molecular Formula": "C20H40O", "Boiling Point": "190 \u00b0C @ Press: 10 Torr", "Melting Point": "30 \u00b0C"}}