{"cas_no": "930-60-9", "cn_name": "4-\u73af\u620a\u70ef-1,3-\u4e8c\u916e", "en_name": ["2-Cyclopentene-1,4-dione", "4-Cyclopentene-1,3-dione", "Cyclopentenedione", "Cyclopentene-3,5-dione", "Cyclopentene-1,3-dione", "2-Cyclopentene-1,4-dione", "1-Cyclopentene-3,5-dione", "NSC 155336", "2-Cyclopenten-1,4-dione", "Cyclopent-4-en-1,3-dione"], "SMILES": "O=C1CC(=O)C=C1", "physical_data": {"Molecular Weight": "96.08", "Molecular Formula": "C5H4O2", "Boiling Point": "60 \u00b0C", "Melting Point": "37 \u00b0C"}}