{"cas_no": "931-34-0", "cn_name": "5-\u6eb4\u5421\u54af-2-\u7532\u919b", "en_name": ["5-Bromo-1H-pyrrole-2-carboxaldehyde", "1H-Pyrrole-2-carboxaldehyde, 5-bromo-", "Pyrrole-2-carboxaldehyde, 5-bromo-", "5-Bromo-1H-pyrrole-2-carboxaldehyde", "5-Bromopyrrole-2-carboxaldehyde", "2-Bromo-5-formylpyrrole"], "SMILES": "C(=O)C=1NC(Br)=CC1", "physical_data": {"Molecular Weight": "174.00", "Molecular Formula": "C5H4BrNO", "Melting Point": "93-94 \u00b0C"}}