{"cas_no": "931-48-6", "cn_name": "\u73af\u5df1\u4e59\u7094", "en_name": ["Ethynylcyclohexane", "Cyclohexane, ethynyl-", "Ethynylcyclohexane", "Ethyne, cyclohexyl-", "Cyclohexylethyne", "Cyclohexylacetylene", "1-Cyclohexylethyne"], "SMILES": "C(#C)C1CCCCC1", "physical_data": {"Molecular Weight": "108.18", "Molecular Formula": "C8H12", "Boiling Point": "130-132 \u00b0C", "Melting Point": "130-132 \u00b0C", "Density": "0.8424 g/cm\u00b3 @ Temp: 20 \u00b0C"}}