{"cas_no": "931-87-3", "cn_name": "\u73af\u8f9b\u70ef", "en_name": ["cis-Cyclooctene", "Cyclooctene, (1Z)-", "Cyclooctene, (Z)-", "(1Z)-Cyclooctene", "cis-Cyclooctene", "(Z)-Cyclooctene"], "SMILES": "C1CCCC=CCC1", "physical_data": {"Molecular Weight": "110.20", "Molecular Formula": "C8H14", "Boiling Point": "138 \u00b0C", "Melting Point": "-12 \u00b0C", "Density": "0.8448 g/cm\u00b3 @ Temp: 25 \u00b0C"}}