{"cas_no": "931-19-1", "cn_name": "2-\u7532\u57fa\u5421\u5576\u6c27\u5316\u7269", "en_name": ["Pyridine, 2-methyl-, 1-oxide", "Pyridine, 2-methyl-, 1-oxide", "2-Picoline, 1-oxide", "2-Methylpyridine 1-oxide", "\u03b1-Picoline N-oxide", "2-Methylpyridine N-oxide", "\u03b1-Picoline 1-oxide", "NSC 18253", "2-Methyl-1-oxidopyridin-1-ium", "2-Methylpyridin-1-ium-1-olate"], "SMILES": "CC=1N(=O)=CC=CC1", "physical_data": {"Molecular Weight": "109.13", "Molecular Formula": "C6H7NO", "Boiling Point": "123 \u00b0C @ Press: 9 Torr", "Melting Point": "48-50 \u00b0C"}}