{"cas_no": "931-36-2", "cn_name": "2-\u4e59\u57fa-4-\u7532\u57fa\u54aa\u5511", "en_name": ["2-Ethyl-4-methylimidazole", "1H-Imidazole, 2-ethyl-5-methyl-", "Imidazole, 2-ethyl-4-methyl-", "1H-Imidazole, 2-ethyl-4-methyl-", "Imidazole, 2-ethyl-4(or 5)-methyl-", "2-Ethyl-5-methyl-1H-imidazole", "2-Ethyl-4-methylimidazole", "4-Methyl-2-ethylimidazole", "2-Ethyl-4-methyl-1H-imidazole", "EMI 24", "Curezol 2E4MZ", "2E4MZ", "Epicure EMI 24", "EMI 70", "Imicure EMI 24", "NSC 82315", "Omicure 24EMI", "B 2 (curing catalyst)", "B 2", "JER Cure EMI 24", "Dyhard MI-C", "Curezol 2E4MZ2", "Texnol EM 24", "E 0232"], "SMILES": "C(C)C=1NC(C)=CN1", "physical_data": {"Molecular Weight": "110.16", "Molecular Formula": "C6H10N2", "Boiling Point": "120-125 \u00b0C @ Press: 2 Torr"}}