{"cas_no": "931-61-3", "cn_name": "2-\u7532\u80fa\u57fa\u5627\u5576", "en_name": ["N-Methyl-2-pyrimidinamine", "2-Pyrimidinamine, N-methyl-", "Pyrimidine, 2-(methylamino)-", "N-Methyl-2-pyrimidinamine", "2-Methylaminopyrimidine", "NSC 102272", "N-Methylpyrimidin-2-amine"], "SMILES": "N(C)C=1N=CC=CN1", "physical_data": {"Molecular Weight": "109.13", "Molecular Formula": "C5H7N3", "Boiling Point": "91-92 \u00b0C @ Press: 14 Torr", "Melting Point": "59-61 \u00b0C"}}