{"cas_no": "931-54-4", "cn_name": "1-\u5f02\u82ef\u7532\u8148", "en_name": ["Isocyanobenzene", "Benzene, isocyano-", "Phenyl isocyanide", "Isocyanobenzene", "Phenyl isonitrile", "Benzoisonitrile"], "SMILES": "[N+](#[C-])C1=CC=CC=C1", "physical_data": {"Molecular Weight": "", "Molecular Formula": "C7H5N", "Boiling Point": "50.5 \u00b0C"}}