{"cas_no": "931-71-5", "cn_name": "\u987a\u5f0f-1,4-\u73af\u5df1\u4e8c\u9187", "en_name": ["cis-1,4-Cyclohexanediol", "1,4-Cyclohexanediol, cis-", "cis-1,4-Cyclohexanediol", "cis-1,4-Dihydroxycyclohexane"], "SMILES": "OC1CCC(O)CC1", "physical_data": {"Molecular Weight": "116.16", "Molecular Formula": "C6H12O2", "Melting Point": "100-102 \u00b0C"}}