{"cas_no": "931-59-9", "cn_name": "\u82ef\u6b21\u78fa\u9170\u6c2f", "en_name": ["Benzenesulfenyl chloride", "Benzenesulfenyl chloride", "Benzene, (chlorothio)-", "Phenyl chloro sulfide", "Phenylsulfenyl chloride", "Phenylsulphenyl chloride", "(Chlorothio)benzene", "(Chlorosulfanyl)benzene"], "SMILES": "S(Cl)C1=CC=CC=C1", "physical_data": {"Molecular Weight": "144.62", "Molecular Formula": "C6H5ClS", "Boiling Point": "73-75 \u00b0C @ Press: 9 Torr", "Density": "1.255 g/cm\u00b3 @ Temp: 20 \u00b0C"}}