{"cas_no": "931-88-4", "cn_name": "\u73af\u8f9b\u70ef", "en_name": ["Cyclooctene", "Cyclooctene", "NSC 72425"], "SMILES": "C1CCCC=CCC1", "physical_data": {"Molecular Weight": "110.20", "Molecular Formula": "C8H14", "Boiling Point": "143-144 \u00b0C", "Melting Point": "219 \u00b0C", "Density": "0.8519 g/cm\u00b3 @ Temp: 15 \u00b0C"}}