{"cas_no": "931-17-9", "cn_name": "1,2-\u73af\u5df1\u4e8c\u9187", "en_name": ["1,2-Cyclohexanediol", "1,2-Cyclohexanediol", "Pyrocatechitol", "1,2-Benzenediol, hexahydro-", "2-Hydroxycyclohexanol", "1,2-Dihydroxycyclohexane", "NSC 10110"], "SMILES": "OC1C(O)CCCC1", "physical_data": {"Molecular Weight": "116.16", "Molecular Formula": "C6H12O2", "Boiling Point": "225 \u00b0C", "Melting Point": "75-76 \u00b0C", "Density": "0.9482 g/cm\u00b3 @ Temp: 20 \u00b0C"}}