{"cas_no": "931-53-3", "cn_name": "\u5f02\u6c30\u73af\u5df2\u70f7", "en_name": ["Cyclohexyl isocyanide", "Cyclohexane, isocyano-", "Cyclohexyl isocyanide", "Isocyanocyclohexane", "Cyclohexyl isonitrile", "Cyclohexaneisonitrile", "1-Cyclohexyl isonitrile"], "SMILES": "[N+](#[C-])C1CCCCC1", "physical_data": {"Molecular Weight": "", "Molecular Formula": "C7H11N", "Boiling Point": "56-58 \u00b0C @ Press: 11 Torr"}}