{"cas_no": "931-40-8", "cn_name": "\u7f9f\u7532\u57fa\u4e8c\u6c27\u6742\u620a\u73af\u916e", "en_name": ["Glycerol carbonate", "1,3-Dioxolan-2-one, 4-(hydroxymethyl)-", "Carbonic acid, cyclic (hydroxymethyl)ethylene ester", "Carbonic acid, (hydroxymethyl)ethylene ester", "4-(Hydroxymethyl)-1,3-dioxolan-2-one", "Glycerol cyclic 1,2-carbonate", "Glycerol carbonate", "3-Hydroxypropylene carbonate", "Racemic glycerol 1,2-carbonate", "Glycerin carbonate", "NSC 60535", "Jeffsol GC", "Glycerol 1,2-carbonate", "(2-Oxo-1,3-dioxolan-4-yl)methanol", "2-Oxo-1,3-dioxolane-4-methanol", "4-Methylolethylene carbonate", "Glycerine carbonate", "4-Hydroxymethyl-1,3-dioxolane-2-one", "3-Hydroxypropene carbonate"], "SMILES": "C(O)C1OC(=O)OC1", "physical_data": {"Molecular Weight": "118.09", "Molecular Formula": "C4H6O4", "Boiling Point": "130 \u00b0C @ Press: 0.08 Torr", "Density": "1.42 g/cm\u00b3"}}