{"cas_no": "931-20-4", "cn_name": "1-\u7532\u57fa-2-\u54cc\u5576\u916e", "en_name": ["1-Methyl-2-piperidone", "2-Piperidinone, 1-methyl-", "2-Piperidone, 1-methyl-", "1-Methyl-2-piperidinone", "N-Methyl-2-piperidone", "N-Methyl-2-piperidinone", "1-Methyl-2-piperidone", "N-Methyl-\u03b4-valerolactam", "N-Methylvalerolactam", "N-Methylpiperidone", "NSC 67384", "1-Methyl-6-oxopiperidine"], "SMILES": "O=C1N(C)CCCC1", "physical_data": {"Molecular Weight": "113.16", "Molecular Formula": "C6H11NO", "Boiling Point": "94-95 \u00b0C @ Press: 9 Torr", "Density": "1.0331 g/cm\u00b3 @ Temp: 20 \u00b0C"}}