{"cas_no": "931-86-2", "cn_name": "5-\u6c2e\u6742\u80de\u5627\u5576", "en_name": ["6-Amino-1,3,5-triazin-2(1H)-one", "1,3,5-Triazin-2(1H)-one, 6-amino-", "s-Triazin-2(1H)-one, 4-amino-", "1,3,5-Triazin-2(1H)-one, 4-amino-", "s-Triazin-2-ol, 4-amino-", "6-Amino-1,3,5-triazin-2(1H)-one", "5-Azacytosine", "2-Hydroxy-4-aminotriazine", "4-Amino-2-hydroxy-1,3,5-triazine", "NSC 51100", "NSC 54006", "4-Amino-1,3,5-triazin-2-ol"], "SMILES": "NC=1NC(=O)N=CN1", "physical_data": {"Molecular Weight": "112.09", "Molecular Formula": "C3H4N4O", "Melting Point": "175-180 \u00b0C"}}