{"cas_no": "931-97-5", "cn_name": "\u73af\u5df1\u916e\u6c30\u9187", "en_name": ["1-Hydroxycyclohexanecarbonitrile", "Cyclohexanecarbonitrile, 1-hydroxy-", "1-Hydroxycyclohexanecarbonitrile", "1-Cyano-1-hydroxycyclohexane", "Cyclohexanone, cyanohydrin", "NSC 14493", "NSC 52190", "1-Hydroxycyclohexane-1-carbonitrile"], "SMILES": "C(#N)C1(O)CCCCC1", "physical_data": {"Molecular Weight": "125.17", "Molecular Formula": "C7H11NO", "Boiling Point": "119.5 \u00b0C", "Melting Point": "35 \u00b0C", "Density": "1.01723 g/cm\u00b3 @ Temp: 30 \u00b0C"}}