{"cas_no": "931-49-7", "cn_name": "1-\u4e59\u7094\u57fa-\u73af\u5df1\u70f7", "en_name": ["1-Ethynylcyclohexene", "Cyclohexene, 1-ethynyl-", "1-Ethynylcyclohexene", "1-Ethynyl-1-cyclohexene", "(1-Cyclohexenyl)acetylene", "1-Cyclohexen-1-ylacetylene", "(1-Cyclohexenyl)ethyne", "1-Cyclohexen-1-ylethyne", "Cyclohex-1-enylacetylene"], "SMILES": "C(#C)C=1CCCCC1", "physical_data": {"Molecular Weight": "106.17", "Molecular Formula": "C8H10", "Boiling Point": "145-146 \u00b0C", "Density": "0.860 g/cm\u00b3 @ Temp: 25 \u00b0C"}}