{"cas_no": "931-03-3", "cn_name": "3-\u5421\u54af\u7fa7\u9178", "en_name": ["Pyrrole-3-carboxylic acid", "1H-Pyrrole-3-carboxylic acid", "Pyrrole-3-carboxylic acid", "3-Carboxypyrrole"], "SMILES": "C(O)(=O)C=1C=CNC1", "physical_data": {"Molecular Weight": "111.10", "Molecular Formula": "C5H5NO2", "Melting Point": "161 \u00b0C"}}