{"cas_no": "93107-30-3", "cn_name": "1-\u73af\u4e19\u57fa-6,7-\u4e8c\u6c1f-1,4-\u4e8c\u6c22-4-\u6c27\u4ee3-3-\u55b9\u5549\u7532\u9178", "en_name": ["1-Cyclopropyl-6,7-difluoro-1,4-dihydro-4-oxo-3-quinolinecarboxylic acid", "3-Quinolinecarboxylic acid, 1-cyclopropyl-6,7-difluoro-1,4-dihydro-4-oxo-", "1-Cyclopropyl-6,7-difluoro-1,4-dihydro-4-oxo-3-quinolinecarboxylic acid", "1-Cyclopropyl-6,7-difluoro-1,4-dihydro-4-oxoquinoline-3-carboxylic acid", "X 3", "1-Cyclopropyl-6,7-difluoro-4-oxo-1,4-dihydroquinoline-3-carboxylic acid", "1-Cyclopropyl-6,7-difluoro-4-oxo-1,4-dihydroquinolin-3-carboxylic acid", "1-Cyclopropyl-1,4-dihydro-6,7-difluoro-4-oxoquinoline-3-carboxylic acid", "1-Cyclopropyl-6,7-difluoro-4-oxoquinoline-3-carboxylic acid"], "SMILES": "C(O)(=O)C1=CN(C=2C(C1=O)=CC(F)=C(F)C2)C3CC3", "physical_data": {"Molecular Weight": "265.21", "Molecular Formula": "C13H9F2NO3", "Melting Point": "284-286 \u00b0C"}}