{"cas_no": "93107-08-5", "cn_name": "\u76d0\u9178\u73af\u4e19\u6c99\u661f", "en_name": ["Ciprofloxacin hydrochloride", "3-Quinolinecarboxylic acid, 1-cyclopropyl-6-fluoro-1,4-dihydro-4-oxo-7-(1-piperazinyl)-, hydrochloride (1:1)", "3-Quinolinecarboxylic acid, 1-cyclopropyl-6-fluoro-1,4-dihydro-4-oxo-7-(1-piperazinyl)-, monohydrochloride", "Ciprofloxacin hydrochloride", "Cipro", "Ciproxan", "BAY-o 9867", "Cipro (pharmaceutical)", "Ciprocin", "Ciflodal", "Proflaxin", "Ciprowin", "Ciflox", "Ciproquinol", "Ciprinol", "Ciprolin", "Citopcin", "Roxytal", "Rancif", "Probiox", "Cetraxal", "Ciprobiotic", "Quintor", "Quinolide", "Ciriax", "Alcon Cilox", "Ciproxin", "Kenzoflex", "Ciprok", "Ciproxine", "Spitacin", "Cilab", "Ciprecu", "Sophixin Ofteno", "Opthaflox", "Cipromycin", "Unex", "Proflox", "Baflox", "Cifran", "Bacquinor", "Zumaflox", "Ciproflox", "Cycin", "Proksi 250", "Septicide", "Corsacin", "Uniflox", "Proksi 500", "Nivoflox", "Cosflox", "Ciplus", "Mitroken", "Cyprobay", "Ciprocinol", "Loxan", "Cixan", "Ipiflox", "Cimogal", "Cifloxin", "Fimoflox", "Ciprobay Uro", "Superocin", "Ciprogis", "Ciprodar", "Ciprolon", "Bernoflox", "Ciplox", "Eni", "Medociprin", "Baycip", "Ciloxan", "Ciprobay", "Ciprobid", "NSC 620634", "Microrgan", "Belmacina", "Ringoran", "Estecina", "Ciploxx", "Cipro optic", "Ciprofar", "Sipro 250", "Bactiflox", "Serviflox", "Adiflox", "Zoxan", "Ciproben 250", "Quindrops", "Cipromid", "Cipromax", "1-Cyclopropyl-6-fluoro-1,4-dihydro-4-oxo-7-(1-piperazinyl)-3-quinolinecarboxylic acid hydrochloride", "1-Cyclopropyl-6-fluoro-4-oxo-7-piperazin-1-yl-1,4-dihydroquinoline-3-carboxylic acid hydrochloride"], "SMILES": "O=C1C=2C(N(C=C1C(O)=O)C3CC3)=CC(=C(F)C2)N4CCNCC4.Cl", "physical_data": {"Molecular Weight": "", "Molecular Formula": "C17H18FN3O3.ClH", "Melting Point": "&gt;300 \u00b0C"}}