{"cas_no": "93106-60-6", "cn_name": "\u6069\u8bfa\u6c99\u661f", "en_name": ["Enrofloxacin", "3-Quinolinecarboxylic acid, 1-cyclopropyl-7-(4-ethyl-1-piperazinyl)-6-fluoro-1,4-dihydro-4-oxo-", "1-Cyclopropyl-7-(4-ethyl-1-piperazinyl)-6-fluoro-1,4-dihydro-4-oxo-3-quinolinecarboxylic acid", "CFPQ", "BAY-Vp 2674", "Enrofloxacin", "Baytril", "N-Ethylciprofloxacin", "PD 160788", "N\u2032-Ethylciprofloxacin", "1-Cyclopropyl-6-fluoro-7-(4-ethyl-1-piperazinyl)-1,4-dihydro-4-oxo-3-quinolinecarboxylic acid", "Enroxil", "Enrogil", "Enrocin", "Biofloxavet", "Alsir", "Enrofan", "Enrovet", "Enrodac", "Fortius", "N-Ethyl ciprofloxacin", "Enflocyna Sol", "Bayrocin", "1-Cyclopropyl-7-(4-ethyl-piperazin-1-yl)-6-fluoro-4-oxo-1,4-dihydro-quinoline-3-carboxylic acid", "1-Cyclopropyl-7-(4-ethylpiperazin-1-yl)-6-fluoro-4-oxoquinoline-3-carboxylic acid", "Enroflon"], "SMILES": "O=C1C=2C(N(C=C1C(O)=O)C3CC3)=CC(=C(F)C2)N4CCN(CC)CC4", "physical_data": {"Molecular Weight": "359.39", "Molecular Formula": "C19H22FN3O3", "Melting Point": "219-221 \u00b0C"}}