{"cas_no": "932-49-0", "cn_name": "1-(2-\u7f9f\u4e59\u57fa)-2-\u786b\u4ee3\u54aa\u5511\u70f7\u916e", "en_name": ["1-(2-Hydroxyethyl)-2-imidazolidinethione", "2-Imidazolidinethione, 1-(2-hydroxyethyl)-", "1-(2-Hydroxyethyl)-2-imidazolidinethione", "N-(2-Hydroxyethyl)ethylenethiourea", "1-(2-Hydroxyethyl)ethylenethiourea", "NSC 36624", "NSC 64314", "2-(2-Sulfanyl-4,5-dihydro-1H-imidazol-1-yl)ethan-1-ol"], "SMILES": "C(CO)N1C(=S)NCC1", "physical_data": {"Molecular Weight": "146.21", "Molecular Formula": "C5H10N2OS", "Melting Point": "136.5-137.5 \u00b0C"}}