{"cas_no": "932-22-9", "cn_name": "4,5-\u4e8c\u6c2f\u54d2\u55ea-3(2H)-\u916e", "en_name": ["4,5-Dichloro-3(2H)-pyridazinone", "3(2H)-Pyridazinone, 4,5-dichloro-", "4,5-Dichloro-3(2H)-pyridazinone", "4,5-Dichloro-3(2H)-pyridazone", "4,5-Dichloro-6-pyridazone", "4,5-Dichloro-6-oxo-1H-pyridazine", "4,5-Dichloro-2H-pyridazin-3-one", "4,5-Dichloro-3-hydroxypyridazine", "NSC 16127", "NSC 17182", "NSC 240022", "3-Hydroxy-4,5-dichloropyridazine", "4,5-Dichloropyridazin-3-ol", "4,5-Dichloro-1H-pyridazin-6-one", "4,5-Dichloropyridazin-3-one"], "SMILES": "ClC1=C(Cl)C=NNC1=O", "physical_data": {"Molecular Weight": "164.98", "Molecular Formula": "C4H2Cl2N2O", "Melting Point": "202 \u00b0C"}}