{"cas_no": "932-72-9", "cn_name": "(\u4e8c\u6c2f\u7898)-\u82ef", "en_name": ["Iodobenzene dichloride", "Iodine, dichlorophenyl-", "Benzene, (dichloroiodo)-", "Benzene, iodo-, dichloride", "Dichlorophenyliodine", "Iodobenzene dichloride", "(Dichloroiodo)benzene", "Phenylchloroiodonium chloride", "Phenyliodine dichloride", "Phenyliodoso dichloride", "Phenyl iodosochloride", "Phenyliodonium dichloride", "Chlorophenyliodonium chloride", "NSC 149834"], "SMILES": "I(Cl)(Cl)C1=CC=CC=C1", "physical_data": {"Molecular Weight": "274.91", "Molecular Formula": "C6H5Cl2I", "Melting Point": "110-112 \u00b0C (decomp)"}}