{"cas_no": "932-35-4", "cn_name": "2-\u6c30\u57fa-3-\u7f9f\u57fa\u5421\u5576", "en_name": ["3-Hydroxy-2-pyridinecarbonitrile", "2-Pyridinecarbonitrile, 3-hydroxy-", "Picolinonitrile, 3-hydroxy-", "3-Hydroxy-2-pyridinecarbonitrile", "2-Cyano-3-pyridinol", "2-Cyano-3-hydroxypyridine", "3-Hydroxy-2-cyanopyridine", "3-Hydroxypicolinonitrile"], "SMILES": "C(#N)C1=C(O)C=CC=N1", "physical_data": {"Molecular Weight": "120.11", "Molecular Formula": "C6H4N2O", "Melting Point": "211-212 \u00b0C (decomp)"}}