{"cas_no": "932-30-9", "cn_name": "2-\u7f9f\u57fa\u82c4\u80fa", "en_name": ["2-(Aminomethyl)phenol", "Phenol, 2-(aminomethyl)-", "o-Cresol, \u03b1-amino-", "2-(Aminomethyl)phenol", "Salicylamine", "2-Hydroxybenzylamine", "2-Hydroxybenzenemethanamine", "o-Hydroxybenzylamine", "NSC 127870"], "SMILES": "C(N)C1=C(O)C=CC=C1", "physical_data": {"Molecular Weight": "123.15", "Molecular Formula": "C7H9NO", "Melting Point": "129 \u00b0C"}}