{"cas_no": "932-16-1", "cn_name": "2-\u4e59\u9170\u57fa-1-\u7532\u57fa\u5421\u54af", "en_name": ["2-Acetyl-1-methylpyrrole", "Ethanone, 1-(1-methyl-1H-pyrrol-2-yl)-", "Ketone, methyl 1-methylpyrrol-2-yl", "1-(1-Methyl-1H-pyrrol-2-yl)ethanone", "N-Methyl-2-acetylpyrrole", "1-Methyl-2-acetylpyrrole", "2-Acetyl-1-methylpyrrole", "2-Acetyl-N-methylpyrrole", "N-Methyl-2-pyrrolylethanone", "NSC 87239", "1-(1-Methyl-1H-pyrrol-2-yl)ethan-1-one", "N-Methyl-5-acetylpyrrole", "1-(1-Methylpyrrol-2-yl)ethanone"], "SMILES": "C(C)(=O)C=1N(C)C=CC1", "physical_data": {"Molecular Weight": "123.15", "Molecular Formula": "C7H9NO", "Boiling Point": "199-201 \u00b0C @ Press: 739 Torr", "Density": "1.0445 g/cm\u00b3 @ Temp: 15 \u00b0C"}}