{"cas_no": "932-17-2", "cn_name": "1-\u4e59\u9170\u57fa-2-\u5421\u54af\u70f7\u916e", "en_name": ["1-Acetyl-2-pyrrolidone", "2-Pyrrolidinone, 1-acetyl-", "1-Acetyl-2-pyrrolidinone", "1-Acetylpyrrolidone", "N-Acetylpyrrolidinone", "N-Acetylpyrrolidone", "N-Acetyl-2-pyrrolidinone", "N-Acetyl-\u03b1-pyrrolidone", "N-Acetyl-2-pyrrolidone", "N-Acetyl-\u03b1-pyrrolidinone", "1-Acetyl-2-pyrrolidone", "N-Acetylbutyrolactam", "NSC 50334"], "SMILES": "C(C)(=O)N1C(=O)CCC1", "physical_data": {"Molecular Weight": "127.14", "Molecular Formula": "C6H9NO2", "Boiling Point": "118 \u00b0C @ Press: 20 Torr"}}