{"cas_no": "932-53-6", "cn_name": "6-\u6c2e\u6742\u80f8\u817a\u5627\u5576", "en_name": ["6-Azathymine", "1,2,4-Triazine-3,5(2H,4H)-dione, 6-methyl-", "as-Triazine-3,5(2H,4H)-dione, 6-methyl-", "6-Methyl-1,2,4-triazine-3,5(2H,4H)-dione", "6-Azathymine", "6-Methyl-as-triazine-3,5-(2H,4H)-dione", "5-Methyl-6-azauracil", "3,5-Dihydroxy-6-methyl-1,2,4-triazine", "NSC 3426", "NSC 38620"], "SMILES": "O=C1C(C)=NNC(=O)N1", "physical_data": {"Molecular Weight": "127.10", "Molecular Formula": "C4H5N3O2", "Melting Point": "211 \u00b0C"}}