{"cas_no": "932-90-1", "cn_name": "\u82ef\u7532\u919b\u809f", "en_name": ["Benzaldehyde oxime", "Benzaldehyde, oxime", "Benzaldehyde oxime", "Benzaldoxime", "\u03b1-Benzyl monoxime", "\u03b1-Benzaldoxime", "Benzaloxime", "Benzoxime", "NSC 68362"], "SMILES": "C(=NO)C1=CC=CC=C1", "physical_data": {"Molecular Weight": "121.14", "Molecular Formula": "C7H7NO", "Boiling Point": "117-119 \u00b0C @ Press: 14 Torr", "Melting Point": "35 \u00b0C", "Density": "1.121 g/cm\u00b3 @ Temp: 20 \u00b0C"}}