{"cas_no": "932-95-6", "cn_name": "2,5-\u567b\u5429\u4e8c\u7532\u919b", "en_name": ["2,5-Thiophenedicarboxaldehyde", "2,5-Thiophenedicarboxaldehyde", "2,5-Diformylthiophene", "2,5-Thiophenedicarbaldehyde", "2,5-Thiophenedial", "Thiophene-2,5-dialdehyde", "2,5-Thienodicarboxaldehyde"], "SMILES": "C(=O)C=1SC(C=O)=CC1", "physical_data": {"Molecular Weight": "140.16", "Molecular Formula": "C6H4O2S", "Melting Point": "114-114.5 \u00b0C"}}