{"cas_no": "932-66-1", "cn_name": "\u4e59\u9170\u57fa\u73af\u5df2\u70ef", "en_name": ["1-Acetylcyclohexene", "Ethanone, 1-(1-cyclohexen-1-yl)-", "Ketone, 1-cyclohexen-1-yl methyl", "1-(1-Cyclohexen-1-yl)ethanone", "1-Acetyl-1-cyclohexene", "1-Acetylcyclohexene", "1-Cyclohexen-1-yl methyl ketone", "1-Cyclohexenyl methyl ketone", "Methyl 1-cyclohexenyl ketone", "1-Cyclohexen-1-ylethanone", "NSC 12216", "1-(Cyclohex-1-en-1-yl)ethan-1-one"], "SMILES": "C(C)(=O)C=1CCCCC1", "physical_data": {"Molecular Weight": "124.18", "Molecular Formula": "C8H12O", "Boiling Point": "201.5 \u00b0C", "Melting Point": "73 \u00b0C", "Density": "0.9704 g/cm\u00b3 @ Temp: 16 \u00b0C"}}