{"cas_no": "932-96-7", "cn_name": "4-\u6c2f-N-\u7532\u57fa\u82ef\u80fa", "en_name": ["4-Chloro-N-methylbenzenamine", "Benzenamine, 4-chloro-N-methyl-", "Aniline, p-chloro-N-methyl-", "4-Chloro-N-methylbenzenamine", "N-Methyl-4-chloroaniline", "p-Chloro-N-methylaniline", "4-Chloro-N-methylaniline", "N-Methyl-p-chloroaniline", "p-(Methylamino)chlorobenzene", "N-(4-Chlorophenyl)methylamine", "N-(4-Chlorophenyl)-N-methylamine"], "SMILES": "N(C)C1=CC=C(Cl)C=C1", "physical_data": {"Molecular Weight": "141.60", "Molecular Formula": "C7H8ClN", "Boiling Point": "240 \u00b0C", "Melting Point": "107-110 \u00b0C"}}