{"cas_no": "933-98-2", "cn_name": "1,2-\u4e8c\u7532\u57fa-3-\u4e59\u57fa\u82ef", "en_name": ["1-Ethyl-2,3-dimethylbenzene", "Benzene, 1-ethyl-2,3-dimethyl-", "o-Xylene, 3-ethyl-", "1-Ethyl-2,3-dimethylbenzene", "1,2-Dimethyl-3-ethylbenzene", "3-Ethyl-o-xylene", "3-Ethyl-1,2-dimethylbenzene", "2,3-Dimethyl-1-ethylbenzene"], "SMILES": "C(C)C1=C(C)C(C)=CC=C1", "physical_data": {"Molecular Weight": "134.22", "Molecular Formula": "C10H14", "Boiling Point": "194 \u00b0C", "Melting Point": "-49.5 \u00b0C", "Density": "0.8920 g/cm\u00b3 @ Temp: 20 \u00b0C"}}