{"cas_no": "933-67-5", "cn_name": "7-\u7532\u57fa\u5432\u54da", "en_name": ["7-Methylindole", "1H-Indole, 7-methyl-", "Indole, 7-methyl-", "7-Methyl-1H-indole", "7-Methylindole", "NSC 618"], "SMILES": "CC1=C2C(=CC=C1)C=CN2", "physical_data": {"Molecular Weight": "131.17", "Molecular Formula": "C9H9N", "Boiling Point": "266 \u00b0C", "Melting Point": "85 \u00b0C"}}