{"cas_no": "933-48-2", "cn_name": "\u987a\u5f0f-3,3,5-\u4e09\u7532\u57fa\u73af\u5df1\u919b", "en_name": ["cis-3,3,5-Trimethylcyclohexanol", "Cyclohexanol, 3,3,5-trimethyl-, (1R,5R)-rel-", "Cyclohexanol, 3,3,5-trimethyl-, cis-", "rel-(1R,5R)-3,3,5-Trimethylcyclohexanol", "cis-3,5,5-Trimethylcyclohexanol", "cis-3,3,5-Trimethylcyclohexanol", "Trixanol"], "SMILES": "CC1(C)CC(C)CC(O)C1", "physical_data": {"Molecular Weight": "142.24", "Molecular Formula": "C9H18O", "Boiling Point": "202 \u00b0C", "Melting Point": "37.3 \u00b0C", "Density": "0.8908 g/cm\u00b3 @ Temp: 25 \u00b0C"}}