{"cas_no": "933-52-8", "cn_name": "\u56db\u7532\u57fa-1\uff0c3-\u73af\u4e01\u7094", "en_name": ["2,2,4,4-Tetramethyl-1,3-cyclobutanedione", "1,3-Cyclobutanedione, 2,2,4,4-tetramethyl-", "1,3-Cyclobutanedione, tetramethyl-", "2,2,4,4-Tetramethyl-1,3-cyclobutanedione", "Tetramethyl-1,3-cyclobutanedione", "2,2,4,4-Tetramethylcyclobutanedione", "Tetramethylcyclobuta-1,3-dione", "NSC 46472", "NSC 72172"], "SMILES": "O=C1C(C)(C)C(=O)C1(C)C", "physical_data": {"Molecular Weight": "140.18", "Molecular Formula": "C8H12O2", "Boiling Point": "76.5-78.5 \u00b0C @ Press: 25 Torr", "Melting Point": "111.5-113.5 \u00b0C"}}