{"cas_no": "933-78-8", "cn_name": "2\uff0c3\uff0c5-\u4e09\u6c2f\u82ef\u915aTCP", "en_name": ["2,3,5-Trichlorophenol", "Phenol, 2,3,5-trichloro-", "2,3,5-Trichlorophenol"], "SMILES": "ClC1=C(Cl)C=C(Cl)C=C1O", "physical_data": {"Molecular Weight": "197.45", "Molecular Formula": "C6H3Cl3O", "Boiling Point": "248 \u00b0C", "Melting Point": "62 \u00b0C"}}