{"cas_no": "933-88-0", "cn_name": "\u90bb\u7532\u57fa\u82ef\u7532\u9170\u6c2f", "en_name": ["2-Methylbenzoyl chloride", "Benzoyl chloride, 2-methyl-", "o-Toluoyl chloride", "2-Methylbenzoyl chloride", "o-Methylbenzoyl chloride", "2-Toluoyl chloride", "o-Toluic acid chloride", "2-Methylbenzoic acid chloride"], "SMILES": "C(Cl)(=O)C1=C(C)C=CC=C1", "physical_data": {"Molecular Weight": "154.59", "Molecular Formula": "C8H7ClO", "Boiling Point": "213.5 \u00b0C", "Melting Point": "159.5-160.9 \u00b0C"}}