{"cas_no": "933-20-0", "cn_name": "2-\u6c28\u57fa-4,6-\u4e8c\u6c2f-S-\u4e09\u55ea", "en_name": ["2-Amino-4,6-dichloro-1,3,5-triazine", "1,3,5-Triazin-2-amine, 4,6-dichloro-", "s-Triazine, 2-amino-4,6-dichloro-", "4,6-Dichloro-1,3,5-triazin-2-amine", "2-Amino-4,6-dichloro-s-triazine", "2,4-Dichloro-6-amino-1,3,5-triazine", "6-Amino-2,4-dichloro-s-triazine", "2-Amino-4,6-dichloro-1,3,5-triazine", "4,6-Dichloro-2-amino-s-triazine", "2,4-Dichloro-6-amino-s-triazine", "4,6-Dichloro-2-aminotriazine", "s-Dichloroaminotriazine", "2,6-Dichloro-4-amino-s-triazine", "4,6-Dichloro-s-triazin-2-amine", "Aminodichloro-s-triazine", "6-Amino-2,4-dichloro-1,3,5-triazine", "NSC 267458", "NSC 71988", "2-Amino-4,6-dichlorotriazine", "(4,6-Dichloro-[1,3,5]triazin-2-yl)amine"], "SMILES": "ClC=1N=C(Cl)N=C(N)N1", "physical_data": {"Molecular Weight": "164.98", "Molecular Formula": "C3H2Cl2N4", "Melting Point": "235-236 \u00b0C"}}