{"cas_no": "933-76-6", "cn_name": "4,5-\u4e8c\u6c2f-2-\u7532\u57fa\u54d2\u55ea-3-\u916e", "en_name": ["4,5-Dichloro-2-methyl-3(2H)-pyridazinone", "3(2H)-Pyridazinone, 4,5-dichloro-2-methyl-", "4,5-Dichloro-2-methyl-3(2H)-pyridazinone", "2-Methyl-4,5-dichloro-3-pyridazinone", "2-Methyl-4,5-dichloro-3(2H)-pyridazinone", "4,5-Dichloro-2-methyl-2H-pyridazin-3-one"], "SMILES": "ClC=1C(=O)N(C)N=CC1Cl", "physical_data": {"Molecular Weight": "179.00", "Molecular Formula": "C5H4Cl2N2O", "Melting Point": "90-91 \u00b0C"}}