{"cas_no": "933-75-5", "cn_name": "2,3,6-\u4e09\u6c2f\u82ef\u915a", "en_name": ["2,3,6-Trichlorophenol", "Phenol, 2,3,6-trichloro-", "2,3,6-Trichlorophenol"], "SMILES": "ClC1=C(O)C(Cl)=CC=C1Cl", "physical_data": {"Molecular Weight": "197.45", "Molecular Formula": "C6H3Cl3O", "Boiling Point": "272 \u00b0C", "Melting Point": "58 \u00b0C", "Density": "1.5 g/cm\u00b3"}}