{"cas_no": "933-90-4", "cn_name": "3-\u7f9f\u57fa\u5421\u5576\u9170\u80fa", "en_name": ["3-Hydroxypicolinamide", "2-Pyridinecarboxamide, 3-hydroxy-", "Picolinamide, 3-hydroxy-", "3-Hydroxy-2-pyridinecarboxamide", "3-Hydroxy-2-picolinamide", "3-Hydroxypicolinamide", "2-Carboxamide-3-hydroxypyridine", "3-Hydroxy-pyridine-2-carboxylic acid amide"], "SMILES": "C(N)(=O)C1=C(O)C=CC=N1", "physical_data": {"Molecular Weight": "138.12", "Molecular Formula": "C6H6N2O2", "Melting Point": "194-196 \u00b0C"}}