{"cas_no": "93349-99-6", "cn_name": "5-\u6eb4-6-\u7532\u6c27\u57fa\u70df\u9178\u7532\u916f", "en_name": ["3-Pyridinecarboxylic acid, 5-bromo-6-methoxy-, methyl ester", "3-Pyridinecarboxylic acid, 5-bromo-6-methoxy-, methyl ester", "5-Bromo-6-methoxynicotinic acid methyl ester", "Methyl 5-bromo-6-methoxynicotinate", "Methyl 5-bromo-6-methoxypyridine-3-carboxylate"], "SMILES": "C(OC)(=O)C=1C=C(Br)C(OC)=NC1", "physical_data": {"Molecular Weight": "246.06", "Molecular Formula": "C8H8BrNO3", "Melting Point": "104-105 \u00b0C"}}