{"cas_no": "93343-10-3", "cn_name": "3,5-\u4e8c\u6c1f\u82ef\u7532\u919a", "en_name": ["1,3-Difluoro-5-methoxybenzene", "Benzene, 1,3-difluoro-5-methoxy-", "1,3-Difluoro-5-methoxybenzene", "3,5-Difluoroanisole"], "SMILES": "O(C)C1=CC(F)=CC(F)=C1", "physical_data": {"Molecular Weight": "144.12", "Molecular Formula": "C7H6F2O", "Boiling Point": "145-148 \u00b0C @ Press: 760 Torr"}}