{"cas_no": "934-71-4", "cn_name": "1-\u6eb4-4-(\u7532\u57fa\u4e9a\u78fa\u9170)\u82ef", "en_name": ["4-Bromophenyl methyl sulfoxide", "Benzene, 1-bromo-4-(methylsulfinyl)-", "Sulfoxide, p-bromophenyl methyl", "1-Bromo-4-(methylsulfinyl)benzene", "p-Bromophenyl methyl sulfoxide", "Methyl 4-bromophenyl sulfoxide", "4-Bromophenyl methyl sulfoxide", "[(4-Bromophenyl)sulfinyl]methane", "(\u00b1)-p-Bromophenyl methyl sulfoxide", "4-Bromo(methylsulfinyl)benzene", "Methyl p-bromophenyl sulfoxide", "(\u00b1)-4-(Bromophenyl) methyl sulfoxide", "1-Bromo-4-methanesulfinylbenzene"], "SMILES": "S(C)(=O)C1=CC=C(Br)C=C1", "physical_data": {"Molecular Weight": "219.10", "Molecular Formula": "C7H7BrOS", "Melting Point": "86-87 \u00b0C"}}