{"cas_no": "934-53-2", "cn_name": "ALFA, ALFA-\u4e8c\u7532\u57fa\u82c4\u6c2f", "en_name": ["(1-Chloro-1-methylethyl)benzene", "Benzene, (1-chloro-1-methylethyl)-", "Cumene, \u03b1-chloro-", "(1-Chloro-1-methylethyl)benzene", "2-Chloro-2-phenylpropane", "Chlorodimethylphenylmethane", "\u03b1-Cumyl chloride", "\u03b1-Chlorocumene", "2-Phenyl-2-propyl chloride", "\u03b1,\u03b1-Dimethylbenzyl chloride", "tert-Cumyl chloride", "Phenyldimethylcarbinyl chloride", "(1-Methyl-1-chloroethyl)benzene", "2-Phenyl-2-chloropropane", "(2-Chloroprop-2-yl)benzene", "(2-Chloropropan-2-yl)benzene", "2-Chloropropan-2-ylbenzene"], "SMILES": "C(C)(C)(Cl)C1=CC=CC=C1", "physical_data": {"Molecular Weight": "154.64", "Molecular Formula": "C9H11Cl", "Boiling Point": "56-58 \u00b0C @ Press: 1.5 Torr", "Density": "1.04 g/cm\u00b3 @ Temp: 18 \u00b0C"}}