{"cas_no": "934-98-5", "cn_name": "4-\u7532\u57fa-1-\u54cc\u55ea\u4e59\u80fa", "en_name": ["2-(4-Methylpiperazin-1-yl)ethylamine", "1-Piperazineethanamine, 4-methyl-", "Piperazine, 1-(2-aminoethyl)-4-methyl-", "4-Methyl-1-piperazineethanamine", "1-(2-Aminoethyl)-4-methylpiperazine", "1-Methyl-4-(2-aminoethyl)piperazine", "2-(4-Methylpiperazin-1-yl)ethylamine", "2-(4-Methyl-1-piperazinyl)ethanamine", "2-(4-Methylpiperazino)ethanamine", "4-(2-Aminoethyl)-1-methylpiperazine", "2-(4-Methylpiperazin-1-yl)ethan-1-amine"], "SMILES": "C(CN)N1CCN(C)CC1", "physical_data": {"Molecular Weight": "143.23", "Molecular Formula": "C7H17N3", "Boiling Point": "81-83 \u00b0C @ Press: 11 Torr"}}