{"cas_no": "934-48-5", "cn_name": "3,5-\u4e8c\u7532\u57fa\u5421\u5511-1-\u7fb0\u9170\u80fa", "en_name": ["3,5-Dimethyl-1H-pyrazole-1-carboxamide", "1H-Pyrazole-1-carboxamide, 3,5-dimethyl-", "Pyrazole-1-carboxamide, 3,5-dimethyl-", "3,5-Dimethyl-1H-pyrazole-1-carboxamide", "3,5-Dimethylpyrazole-1-carboxamide", "1-Carbamido-3,5-dimethylpyrazole", "1-Carbamoyl-3,5-dimethylpyrazole", "3,5-Dimethyl-1-carbamidopyrazole", "NSC 51106", "NSC 56168", "NSC 70738"], "SMILES": "C(N)(=O)N1N=C(C)C=C1C", "physical_data": {"Molecular Weight": "139.16", "Molecular Formula": "C6H9N3O", "Melting Point": "107-108 \u00b0C"}}