{"cas_no": "934-34-9", "cn_name": "2-\u7f9f\u57fa\u82ef\u5e76\u567b\u5511", "en_name": ["2-Benzothiazolinone", "2(3H)-Benzothiazolone", "2-Benzothiazolinone", "2-Hydroxybenzothiazole", "2-Benzothiazolol", "Benzothiazolone", "2-Benzothiazolone", "2-Oxobenzothiazole", "NSC 26422", "NSC 33823", "NSC 7706", "1,3-Benzothiazol-2(3H)-one", "2,3-Dihydro-1,3-benzothiazol-2-one", "1,3-Benzothiazol-2-ol"], "SMILES": "O=C1NC=2C(S1)=CC=CC2", "physical_data": {"Molecular Weight": "151.19", "Molecular Formula": "C7H5NOS", "Boiling Point": "360 \u00b0C", "Melting Point": "139 \u00b0C"}}