{"cas_no": "934-80-5", "cn_name": "1,2-\u4e8c\u7532\u57fa-4-\u4e59\u57fa\u82ef", "en_name": ["1,2-Dimethyl-4-ethylbenzene", "Benzene, 4-ethyl-1,2-dimethyl-", "o-Xylene, 4-ethyl-", "4-Ethyl-1,2-dimethylbenzene", "1,2-Dimethyl-4-ethylbenzene", "4-Ethyl-o-xylene", "2-Methyl-p-ethyltoluene", "3,4-Dimethyl-1-ethylbenzene", "1-Ethyl-3,4-dimethylbenzene", "NSC 74183"], "SMILES": "C(C)C1=CC(C)=C(C)C=C1", "physical_data": {"Molecular Weight": "134.22", "Molecular Formula": "C10H14", "Boiling Point": "189.5 \u00b0C", "Melting Point": "-66.9 \u00b0C", "Density": "0.8777 g/cm\u00b3 @ Temp: 15.2 \u00b0C"}}