{"cas_no": "934-22-5", "cn_name": "5-\u6c28\u57fa\u82ef\u5e76\u54aa\u5511", "en_name": ["5-Aminobenzimidazole", "1H-Benzimidazol-6-amine", "Benzimidazole, 5-amino-", "1H-Benzimidazol-5-amine", "Benzimidazole, 5(or 6)-amino-", "5-Aminobenzimidazole", "6-Aminobenzimidazole", "NSC 231612", "1H-Benzimidazol-5-ylamine", "3H-Benzo[d]imidazol-5-amine", "Benzimidazol-5-amine", "1H-Benzoimidazol-5-ylamine", "1H-1,3-Benzodiazol-6-amine", "1H-1,3-Benzodiazol-5-amine", "1H-Benzo[d]imidazol-5-amine"], "SMILES": "NC=1C=C2C(=CC1)NC=N2", "physical_data": {"Molecular Weight": "133.15", "Molecular Formula": "C7H7N3", "Boiling Point": "222 \u00b0C @ Press: 3.5 Torr", "Melting Point": "164 \u00b0C"}}