{"cas_no": "934-32-7", "cn_name": "2-\u6c28\u57fa\u82ef\u5e76\u54aa\u5511", "en_name": ["2-Aminobenzimidazole", "1H-Benzimidazol-2-amine", "Benzimidazole, 2-amino-", "2-Aminobenzimidazole", "2-Iminobenzimidazoline", "2-Benzimidazolamine", "2-AB", "2-Amino-1H-benzimidazole", "2-Benzimidazolylamine", "1H-Benzimidazol-2-ylamine", "NSC 27793", "NSC 7628", "A 0850", "2-Aminobenzoimidazole", "1H-1,3-Benzodiazol-2-amine", "1H-Benzoimidazol-2-ylamine", "1H-Benzo[d]imidazole-2-amine"], "SMILES": "NC=1NC=2C(N1)=CC=CC2", "physical_data": {"Molecular Weight": "133.15", "Molecular Formula": "C7H7N3", "Melting Point": "229-231 \u00b0C"}}