{"cas_no": "934-37-2", "cn_name": "2-\u7532\u57fa\u54aa\u5511\u5e76[1,2-A]\u5421\u5576", "en_name": ["2-Methylimidazo[1,2-a]pyridine", "Imidazo[1,2-a]pyridine, 2-methyl-", "2-Methylimidazo[1,2-a]pyridine"], "SMILES": "CC=1N=C2N(C1)C=CC=C2", "physical_data": {"Molecular Weight": "132.16", "Molecular Formula": "C8H8N2", "Boiling Point": "134-136 \u00b0C @ Press: 15 Torr", "Melting Point": "45-46 \u00b0C"}}