{"cas_no": "934-74-7", "cn_name": "5-\u4e59\u57fa\u95f4\u4e8c\u7532\u82ef", "en_name": ["1-Ethyl-3,5-dimethylbenzene", "Benzene, 1-ethyl-3,5-dimethyl-", "m-Xylene, 5-ethyl-", "1-Ethyl-3,5-dimethylbenzene", "1,3-Dimethyl-5-ethylbenzene", "5-Ethyl-m-xylene", "3,5-Dimethylethylbenzene", "NSC 74185"], "SMILES": "C(C)C1=CC(C)=CC(C)=C1", "physical_data": {"Molecular Weight": "134.22", "Molecular Formula": "C10H14", "Boiling Point": "183.6 \u00b0C", "Melting Point": "-84.3 \u00b0C", "Density": "0.8644 g/cm\u00b3 @ Temp: 20 \u00b0C"}}