{"cas_no": "934-00-9", "cn_name": "3-\u7532\u6c27\u57fa\u513f\u8336\u915a", "en_name": ["3-Methoxycatechol", "1,2-Benzenediol, 3-methoxy-", "Pyrocatechol, 3-methoxy-", "3-Methoxy-1,2-benzenediol", "3-Methoxycatechol", "3-Methoxypyrocatechol", "Pyrogallol 1-monomethyl ether", "Pyrogallol 1-methyl ether", "2,3-Dihydroxyanisole", "1,2-Dihydroxy-3-methoxybenzene", "2-Hydroxy-3-methoxyphenol", "6-Methoxycatechol", "3-Methoxy-o-hydroquinone", "3-Methoxy-1,2-dihydroxybenzene", "1-O-Methylpyrogallol", "NSC 66525"], "SMILES": "O(C)C1=C(O)C(O)=CC=C1", "physical_data": {"Molecular Weight": "140.14", "Molecular Formula": "C7H8O3", "Boiling Point": "129 \u00b0C @ Press: 10 Torr", "Melting Point": "42.8 \u00b0C"}}