{"cas_no": "934-87-2", "cn_name": "S-\u786b\u4ee3\u4e59\u9178\u82ef\u916f", "en_name": ["Ethanethioic acid, S-phenyl ester", "Ethanethioic acid, S-phenyl ester", "Acetic acid, thio-, S-phenyl ester", "Benzenethiol, acetate", "Phenyl thioacetate", "Phenyl thiolacetate", "Thiophenyl acetate", "S-Phenyl thioacetate", "S-Phenyl ethanethioate", "1-(Phenylsulfanyl)ethan-1-one"], "SMILES": "S(C(C)=O)C1=CC=CC=C1", "physical_data": {"Molecular Weight": "152.21", "Molecular Formula": "C8H8OS", "Boiling Point": "110 \u00b0C @ Press: 13 Torr", "Melting Point": "18-19 \u00b0C"}}