{"cas_no": "934-60-1", "cn_name": "6-\u7532\u57fa-2-\u5421\u5576\u7532\u9178", "en_name": ["6-Methylpicolinic acid", "2-Pyridinecarboxylic acid, 6-methyl-", "Picolinic acid, 6-methyl-", "6-Methyl-2-pyridinecarboxylic acid", "2-Picoline-6-carboxylic acid", "2-Carboxy-6-methylpyridine", "6-Methylpicolinic acid", "NSC 109143", "NSC 26023", "6-Methyl-3-picolinic acid"], "SMILES": "C(O)(=O)C=1N=C(C)C=CC1", "physical_data": {"Molecular Weight": "137.14", "Molecular Formula": "C7H7NO2", "Melting Point": "95-96 \u00b0C"}}