{"cas_no": "934-05-4", "cn_name": "4-\u6eb4-1H-\u5421\u54af-2-\u7fa7\u9178\u7532\u916f", "en_name": ["Methyl 4-bromo-1H-pyrrole-2-carboxylate", "1H-Pyrrole-2-carboxylic acid, 4-bromo-, methyl ester", "Pyrrole-2-carboxylic acid, 4-bromo-, methyl ester", "Methyl 4-bromo-1H-pyrrole-2-carboxylate", "Methyl 4-bromopyrrole-2-carboxylate", "4-Bromo-1H-pyrrole-2-carboxylic acid methyl ester"], "SMILES": "C(OC)(=O)C1=CC(Br)=CN1", "physical_data": {"Molecular Weight": "204.02", "Molecular Formula": "C6H6BrNO2", "Melting Point": "101 \u00b0C"}}