{"cas_no": "93413-79-7", "cn_name": "\u76d0\u9178\u6587\u62c9\u6cd5\u8f9b\u6742\u8d28F", "en_name": ["Benzeneethanamine, \u03b2-1-cyclohexen-1-yl-4-methoxy-N,N-dimethyl-, hydrochloride (1:1)", "Benzeneethanamine, \u03b2-1-cyclohexen-1-yl-4-methoxy-N,N-dimethyl-, hydrochloride (1:1)", "Benzeneethanamine, \u03b2-1-cyclohexen-1-yl-4-methoxy-N,N-dimethyl-, hydrochloride, (\u00b1)-", "Benzeneethanamine, \u03b2-1-cyclohexen-1-yl-4-methoxy-N,N-dimethyl-, hydrochloride"], "SMILES": "C(CN(C)C)(C1=CC=C(OC)C=C1)C=2CCCCC2.Cl", "physical_data": {"Molecular Weight": "", "Molecular Formula": "C17H25NO.ClH", "Melting Point": "187-189 \u00b0C"}}