{"cas_no": "93413-76-4", "cn_name": "1-\u7f9f\u57fa\u73af\u5df1\u57fa-4-\u7532\u6c27\u57fa\u82ef\u4e59\u8148", "en_name": ["1-[Cyano(4-methoxyphenyl)methyl]cyclohexanol", "Benzeneacetonitrile, \u03b1-(1-hydroxycyclohexyl)-4-methoxy-", "Benzeneacetonitrile, \u03b1-(1-hydroxycyclohexyl)-4-methoxy-, (\u00b1)-", "\u03b1-(1-Hydroxycyclohexyl)-4-methoxybenzeneacetonitrile", "1-[Cyano(4-methoxyphenyl)methyl]cyclohexanol", "\u03b1-(p-Methoxyphenyl)-\u03b1-(1-hydroxycyclohexyl)acetonitrile", "1-[Cyano(p-methoxyphenyl)methyl]cyclohexanol", "(4-Methoxyphenyl)-(1-hydroxycyclohex-1-yl)acetonitrile", "2-(1-Hydroxycyclohexyl)-2-(4-methoxyphenyl)acetonitrile"], "SMILES": "C(C#N)(C1(O)CCCCC1)C2=CC=C(OC)C=C2", "physical_data": {"Molecular Weight": "245.32", "Molecular Formula": "C15H19NO2", "Melting Point": "122-124 \u00b0C"}}