{"cas_no": "93413-62-8", "cn_name": "O-\u53bb\u7532\u6587\u62c9\u6cd5\u8f9b", "en_name": ["Desvenlafaxine", "Phenol, 4-[2-(dimethylamino)-1-(1-hydroxycyclohexyl)ethyl]-", "4-[2-(Dimethylamino)-1-(1-hydroxycyclohexyl)ethyl]phenol", "O-Desmethylvenlafaxine", "Desvenlafaxine", "DVS 233", "Pristiq", "D-VENIZ", "NEWVEN", "MDD-XR", "O-Desvenlafaxine", "Khedezla"], "SMILES": "C(CN(C)C)(C1(O)CCCCC1)C2=CC=C(O)C=C2", "physical_data": {"Molecular Weight": "263.38", "Molecular Formula": "C16H25NO2", "Melting Point": "221.9 \u00b0C"}}