{"cas_no": "93413-69-5", "cn_name": "\u6587\u62c9\u6cd5\u8f9b", "en_name": ["Venlafaxine", "Cyclohexanol, 1-[2-(dimethylamino)-1-(4-methoxyphenyl)ethyl]-", "Cyclohexanol, 1-[2-(dimethylamino)-1-(4-methoxyphenyl)ethyl]-, (\u00b1)-", "1-[2-(Dimethylamino)-1-(4-methoxyphenyl)ethyl]cyclohexanol", "Venlafaxine", "(\u00b1)-Venlafaxine", "Venlafexine", "Venlafaxin", "Trevilor", "Velafax", "Venlafaxine XR", "Venlor", "Kanghong", "1-[2-Dimethylamino(4-methoxyphenyl)ethyl] cyclohexanol"], "SMILES": "C(CN(C)C)(C1(O)CCCCC1)C2=CC=C(OC)C=C2", "physical_data": {"Molecular Weight": "277.40", "Molecular Formula": "C17H27NO2", "Melting Point": "102-104 \u00b0C"}}