{"cas_no": "93413-77-5", "cn_name": "1-[2-\u6c28\u57fa-1-(4-\u7532\u6c27\u57fa\u82ef\u57fa)\u4e59\u57fa]\u73af\u5df1\u9187", "en_name": ["1-[2-Amino-1-(4-methoxyphenyl)ethyl]cyclohexanol", "Cyclohexanol, 1-[2-amino-1-(4-methoxyphenyl)ethyl]-", "Cyclohexanol, 1-[2-amino-1-(4-methoxyphenyl)ethyl]-, (\u00b1)-", "1-[2-Amino-1-(4-methoxyphenyl)ethyl]cyclohexanol", "1-[2-Amino-1-(p-methoxyphenyl)ethyl]cyclohexanol", "N,N-Didesmethylvenlafaxine", "Dinorvenlafaxine", "2-(4-Methoxyphenyl)-2-(1-hydroxycyclohexyl)-ethylamine", "1-[2-Amino-1-(4-methoxyphenyl)ethyl]cyclohexan-1-ol", "2-(1-Hydroxy-1-cyclohexyl)-2-(4-methoxyphenyl)ethylamine"], "SMILES": "C(CN)(C1(O)CCCCC1)C2=CC=C(OC)C=C2", "physical_data": {"Molecular Weight": "249.35", "Molecular Formula": "C15H23NO2", "Melting Point": "102-105 \u00b0C"}}