{"cas_no": "934240-31-0", "cn_name": "(2S,5R)-5-(4-((2-\u6c1f\u82c4\u57fa)\u6c27\u57fa)\u82ef\u57fa)\u5421\u54af\u70f7-2-\u7532\u9170\u80fa\u76d0\u9178\u76d0", "en_name": ["2-Pyrrolidinecarboxamide, 5-[4-[(2-fluorophenyl)methoxy]phenyl]-, hydrochloride (1:1), (2S,5R)-", "2-Pyrrolidinecarboxamide, 5-[4-[(2-fluorophenyl)methoxy]phenyl]-, hydrochloride (1:1), (2S,5R)-", "Raxatrigine hydrochloride", "GSK 1014802A", "CNV 1014802A", "Vixotrigine hydrochloride", "(2S,5R)-5-(4-((2-Fluorobenzyl)oxy)phenyl)pyrrolidine-2-carboxamide hydrochloride"], "SMILES": "C(N)(=O)C1NC(CC1)C2=CC=C(OCC3=C(F)C=CC=C3)C=C2.Cl", "physical_data": {"Molecular Weight": "", "Molecular Formula": "C18H19FN2O2.ClH", "Melting Point": "233-234 \u00b0C"}}