{"cas_no": "934240-30-9", "cn_name": "GSK1014802", "en_name": ["(2S,5R)-5-[4-[(2-Fluorophenyl)methoxy]phenyl]-2-pyrrolidinecarboxamide", "2-Pyrrolidinecarboxamide, 5-[4-[(2-fluorophenyl)methoxy]phenyl]-, (2S,5R)-", "(2S,5R)-5-[4-[(2-Fluorophenyl)methoxy]phenyl]-2-pyrrolidinecarboxamide", "CNV 1014802", "Raxatrigine", "Vixotrigine", "(5R)-5-(4-[[(2-Fluorophenyl)methyl]oxy]phenyl)-L-prolinamide", "BIIB 074", "GSK 1014802", "(2S,5R)-5-(4-((2-Fluorobenzyl)oxy)phenyl)pyrrolidine-2-carboxamide"], "SMILES": "C(N)(=O)C1NC(CC1)C2=CC=C(OCC3=C(F)C=CC=C3)C=C2", "physical_data": {"Molecular Weight": "314.35", "Molecular Formula": "C18H19FN2O2", "Melting Point": "119.5 \u00b0C"}}