{"cas_no": "934369-14-9", "cn_name": "934369-14-9", "en_name": ["N-(4-Chlorophenyl)-3,3-dimethyl-2-oxobutanimidic acid 2-(4-chlorophenyl)hydrazide", "Butanimidic acid, N-(4-chlorophenyl)-3,3-dimethyl-2-oxo-, 2-(4-chlorophenyl)hydrazide", "N-(4-Chlorophenyl)-3,3-dimethyl-2-oxobutanimidic acid 2-(4-chlorophenyl)hydrazide", "TY 52156"], "SMILES": "C(=NC1=CC=C(Cl)C=C1)(NNC2=CC=C(Cl)C=C2)C(C(C)(C)C)=O", "physical_data": {"Molecular Weight": "364.27", "Molecular Formula": "C18H19Cl2N3O", "Boiling Point": "62-69 \u00b0C @ Press: 20 Torr", "Melting Point": "90-91 \u00b0C"}}