{"cas_no": "93457-07-9", "cn_name": "2,4-\u4e8c\u6c2f\u82ef\u57fa\u4e19\u916e", "en_name": ["1-(2,4-Dichlorophenyl)-2-propanone", "2-Propanone, 1-(2,4-dichlorophenyl)-", "2-Propanone, (2,4-dichlorophenyl)-", "1-(2,4-Dichlorophenyl)-2-propanone", "2,4-Dichlorophenylacetone"], "SMILES": "C(C(C)=O)C1=C(Cl)C=C(Cl)C=C1", "physical_data": {"Molecular Weight": "203.07", "Molecular Formula": "C9H8Cl2O", "Boiling Point": "73-78 \u00b0C @ Press: 0.07 Torr"}}