{"cas_no": "93457-69-3", "cn_name": "1-\u4e01\u57fa-1-\u7532\u57fa\u5421\u6eb4\u5316\u54af\u70f7\u9393", "en_name": ["1-Butyl-1-methylpyrrolidinium bromide", "Pyrrolidinium, 1-butyl-1-methyl-, bromide (1:1)", "1-Butyl-1-methylpyrrolidinium bromide", "Pyrrolidinium, 1-butyl-1-methyl-, bromide", "N-Butyl-N-methylpyrrolidinium bromide", "N-Methyl-N-butylpyrrolidinium bromide"], "SMILES": "C(CCC)[N+]1(C)CCCC1.[Br-]", "physical_data": {"Molecular Weight": "", "Molecular Formula": "C9H20N.Br", "Melting Point": "215 \u00b0C"}}