{"cas_no": "93479-97-1", "cn_name": "\u683c\u5217\u7f8e\u8132", "en_name": ["Glimepiride", "1H-Pyrrole-1-carboxamide, 3-ethyl-2,5-dihydro-4-methyl-N-[2-[4-[[[[(trans-4-methylcyclohexyl)amino]carbonyl]amino]sulfonyl]phenyl]ethyl]-2-oxo-", "1H-Pyrrole-1-carboxamide, 3-ethyl-2,5-dihydro-4-methyl-N-[2-[4-[[[[(4-methylcyclohexyl)amino]carbonyl]amino]sulfonyl]phenyl]ethyl]-2-oxo-, trans-", "3-Ethyl-2,5-dihydro-4-methyl-N-[2-[4-[[[[(trans-4-methylcyclohexyl)amino]carbonyl]amino]sulfonyl]phenyl]ethyl]-2-oxo-1H-pyrrole-1-carboxamide", "Glimepiride", "HOE 490", "Amaryl", "trans-3-Ethyl-2,5-dihydro-4-methyl-N-[2-[4-[[[[(4-methylcyclohexyl)amino]carbonyl]amino]sulfonyl]phenyl]ethyl] 2-oxo-1H-pyrrole-1-carboxamide", "Glimperide", "Glirid", "Diameprid", "Glimax", "Limeral", "Dibiglim", "GlucoNovax", "ZINC 537791"], "SMILES": "C(NCCC1=CC=C(S(NC(NC2CCC(C)CC2)=O)(=O)=O)C=C1)(=O)N3C(=O)C(CC)=C(C)C3", "physical_data": {"Molecular Weight": "490.62", "Molecular Formula": "C24H34N4O5S", "Melting Point": "212.5 \u00b0C"}}