{"cas_no": "935-56-8", "cn_name": "1-\u6c2f\u4ee3\u91d1\u521a\u70f7", "en_name": ["1-Chloroadamantane", "Tricyclo[3.3.1.13,7]decane, 1-chloro-", "Adamantane, 1-chloro-", "1-Chlorotricyclo[3.3.1.13,7]decane", "1-Chloroadamantane", "Adamantyl chloride", "1-Adamantyl chloride", "3-Chloroadamantane", "NSC 143629"], "SMILES": "ClC12CC3CC(C1)CC(C2)C3", "physical_data": {"Molecular Weight": "170.68", "Molecular Formula": "C10H15Cl", "Melting Point": "168.5-169.5 \u00b0C"}}