{"cas_no": "935-69-3", "cn_name": "7-\u7532\u57fa\u817a\u560c\u5464", "en_name": ["7-Methyladenine", "7H-Purin-6-amine, 7-methyl-", "Adenine, 7-methyl-", "7-Methyl-7H-purin-6-amine", "6-Amino-7-methylpurine", "7-Methyladenine", "N7-Methyladenine", "NSC 7857"], "SMILES": "NC1=C2C(=NC=N1)N=CN2C", "physical_data": {"Molecular Weight": "149.15", "Molecular Formula": "C6H7N5", "Melting Point": "344-346 \u00b0C (decomp)"}}