{"cas_no": "935-02-4", "cn_name": "3-\u82ef\u57fa\u4e19\u7094\u8148", "en_name": ["3-Phenyl-2-propynenitrile", "2-Propynenitrile, 3-phenyl-", "Propiolonitrile, phenyl-", "3-Phenyl-2-propynenitrile", "Phenylcyanoacetylene", "Cyanophenylacetylene", "Phenylpropiolonitrile", "Phenylpropynenitrile", "1-Cyano-2-phenylacetylene", "3-Phenylpropynenitrile", "NSC 71547", "1-Phenyl-2-cyanoacetylene", "3-Phenylpropiolonitrile"], "SMILES": "C(#CC#N)C1=CC=CC=C1", "physical_data": {"Molecular Weight": "127.14", "Molecular Formula": "C9H5N", "Boiling Point": "73-74 \u00b0C @ Press: 3 Torr", "Melting Point": "38-40 \u00b0C"}}