{"cas_no": "935-13-7", "cn_name": "3(2-\u544b\u5583)\u4e19\u9178", "en_name": ["2-Furanpropanoic acid", "2-Furanpropanoic acid", "2-Furanpropionic acid", "\u03b2-(2-Furyl)propionic acid", "3-(2-Furyl)propanoic acid", "3-Furan-2-ylpropionic acid", "3-(2-Furyl)propionic acid", "3-(Furan-2-yl)propanoic acid"], "SMILES": "C(CC(O)=O)C1=CC=CO1", "physical_data": {"Molecular Weight": "140.14", "Molecular Formula": "C7H8O3", "Boiling Point": "229 \u00b0C", "Melting Point": "58 \u00b0C"}}