{"cas_no": "935-42-2", "cn_name": "1-\u82ef\u57fa\u73af\u4e19\u7532\u80fa", "en_name": ["1-Phenylcyclopropanemethanamine", "Cyclopropanemethanamine, 1-phenyl-", "Cyclopropanemethylamine, 1-phenyl-", "1-Phenylcyclopropanemethanamine", "1-Phenylcyclopropanemethylamine", "1-Aminomethyl-1-phenylcyclopropane", "(1-Phenylcyclopropyl)methanamine", "[(1-Phenylcyclopropyl)methyl]amine"], "SMILES": "C(N)C1(CC1)C2=CC=CC=C2", "physical_data": {"Molecular Weight": "147.22", "Molecular Formula": "C10H13N", "Boiling Point": "125-130 \u00b0C @ Press: 0.5 Torr", "Melting Point": "230-233 \u00b0C"}}