{"cas_no": "935-79-5", "cn_name": "\u56db\u6c22\u82ef\u9150", "en_name": ["cis-1,2,3,6-Tetrahydrophthalic anhydride", "1,3-Isobenzofurandione, 3a,4,7,7a-tetrahydro-, (3aR,7aS)-rel-", "4-Cyclohexene-1,2-dicarboxylic anhydride, cis-", "1,3-Isobenzofurandione, 3a,4,7,7a-tetrahydro-, cis-", "rel-(3aR,7aS)-3a,4,7,7a-Tetrahydro-1,3-isobenzofurandione", "cis-1,2,3,6-Tetrahydrophthalic anhydride", "cis-4-Cyclohexene-1,2-dicarboxylic anhydride", "cis-\u03944-Tetrahydrophthalic anhydride", "cis-1,2,3,6-Tetrahydrophthalic acid anhydride", "cis-4-Cyclohexene-1,2-dicarboxylic acid anhydride", "NSC 49672", "meso-1,2,3,6-Tetrahydrophthalic anhydride"], "SMILES": "O=C1C2C(C(=O)O1)CC=CC2", "physical_data": {"Molecular Weight": "152.15", "Molecular Formula": "C8H8O3", "Melting Point": "103-104 \u00b0C"}}