{"cas_no": "935-44-4", "cn_name": "1-\u82ef\u57fa-1-\u73af\u4e19\u57fa\u7532\u8148", "en_name": ["1-Phenylcyclopropanecarbonitrile", "Cyclopropanecarbonitrile, 1-phenyl-", "1-Phenylcyclopropanecarbonitrile", "1-Phenylcyclopropanenitrile", "1-Phenyl-1-cyclopropanecarbonitrile", "1-Phenylcyclopropyl cyanide", "1-Cyano-1-phenylcyclopropane", "NSC 126430"], "SMILES": "C(#N)C1(CC1)C2=CC=CC=C2", "physical_data": {"Molecular Weight": "143.19", "Molecular Formula": "C10H9N", "Boiling Point": "98-100 \u00b0C @ Press: 1 Torr", "Density": "1.0156 g/cm\u00b3 @ Temp: 4 \u00b0C"}}