{"cas_no": "935-92-2", "cn_name": "2,3,5-\u4e09\u7532\u57fa-2,5-\u73af\u5df1\u4e8c\u70ef-1,4-\u4e8c\u916e", "en_name": ["Trimethylbenzoquinone", "2,5-Cyclohexadiene-1,4-dione, 2,3,5-trimethyl-", "p-Benzoquinone, 2,3,5-trimethyl-", "Benzoquinone, trimethyl-", "p-Benzoquinone, trimethyl-", "2,3,5-Trimethyl-2,5-cyclohexadiene-1,4-dione", "Cumoquinone", "p-Pseudocumoquinone", "Trimethylbenzoquinone", "2,3,5-Trimethyl-p-benzoquinone", "2,3,5-Trimethyl-1,4-benzoquinone", "\u03c8-Cumoquinone", "Trimethyl-p-benzoquinone", "Trimethyl-p-quinone", "2,3,5-Trimethylbenzoquinone", "2,3,6-Trimethyl-p-benzoquinone", "2,3,6-Trimethylbenzoquinone", "2,3,5-Trimethylquinone", "Trimethyl-1,4-benzoquinone", "Trimethylquinone", "2,3,6-Trimethyl-1,4-benzoquinone", "NSC 93919", "1,4-Cyclohexanedione, 2,3,5-trimethyl-"], "SMILES": "CC1=C(C)C(=O)C(C)=CC1=O", "physical_data": {"Molecular Weight": "150.17", "Molecular Formula": "C9H10O2", "Boiling Point": "108 \u00b0C @ Press: 18 Torr", "Melting Point": "36 \u00b0C"}}