{"cas_no": "935-30-8", "cn_name": "2-\u6c2e\u6742\u73af\u58ec\u916e", "en_name": ["Octahydro-2H-azonin-2-one", "2H-Azonin-2-one, octahydro-", "Octahydro-2H-azonin-2-one", "Azacyclononan-2-one", "\u03c9-Caprylolactam", "Octanoic acid, 8-amino-, lactam", "\u03b7-Capryllactam", "Capryllactam", "Caprylolactam", "8-Aminooctanoic acid lactam", "2-Perhydroazoninone", "8-Octanelactam", "1-Aza-2-cyclononanone", "2-Oxooctamethyleneimine", "NSC 59017", "Azonan-2-one", "\u03c9-Octalactam"], "SMILES": "O=C1CCCCCCCN1", "physical_data": {"Molecular Weight": "141.21", "Molecular Formula": "C8H15NO", "Boiling Point": "164-166 \u00b0C @ Press: 14 Torr", "Melting Point": "77-79 \u00b0C", "Density": "1.0087 g/cm\u00b3 @ Temp: 73 \u00b0C"}}