{"cas_no": "935-14-8", "cn_name": "1,4-\u4e8c\u4e59\u7094\u57fa\u82ef", "en_name": ["1,4-Diethynylbenzene", "Benzene, 1,4-diethynyl-", "Benzene, p-diethynyl-", "1,4-Diethynylbenzene", "p-Diethynylbenzene", "1,4-Bis(ethynyl)benzene", "1,4-Diacetylenebenzene", "1,4-Diacetylenylbenzene"], "SMILES": "C(#C)C1=CC=C(C#C)C=C1", "physical_data": {"Molecular Weight": "126.15", "Molecular Formula": "C10H6", "Melting Point": "96.5 \u00b0C"}}