{"cas_no": "935-95-5", "cn_name": "2,3,5,6-\u56db\u6c2f\u915a", "en_name": ["2,3,5,6-Tetrachlorophenol", "Phenol, 2,3,5,6-tetrachloro-", "2,3,5,6-Tetrachlorophenol", "NSC 407823"], "SMILES": "ClC1=C(O)C(Cl)=C(Cl)C=C1Cl", "physical_data": {"Molecular Weight": "231.89", "Molecular Formula": "C6H2Cl4O", "Melting Point": "115 \u00b0C", "Density": "1.6 g/cm\u00b3 @ Temp: 60 \u00b0C"}}