{"cas_no": "936-02-7", "cn_name": "\u6c34\u6768\u9170\u80bc", "en_name": ["Salicylic acid, hydrazide", "Benzoic acid, 2-hydroxy-, hydrazide", "Salicylic acid, hydrazide", "o-Hydroxylbenzhydrazide", "Salicyloyl hydrazide", "2-Hydroxybenzohydrazide", "o-Hydroxybenzoic acid hydrazide", "o-Hydroxybenzhydrazide", "Salicyl hydrazide", "2-Hydroxybenzoyl hydrazide", "Salicyloylhydrazine", "2-Hydroxybenzoic acid hydrazide", "o-Hydroxybenzoylhydrazine", "o-Hydroxybenzoylhydrazide", "2-Hydroxybenzoylhydrazine", "Salicylic hydrazide", "2-Hydroxybenzenecarboxylic acid hydrazide", "o-Hydroxybenzoic hydrazide", "NSC 652", "2-Hydroxybenzoic hydrazide", "o-Hydroxybenzohydrazide", "Ortho-hydroxybenzohydrazide", "o-Salicyloylhydrazide", "2-Hydroxybenzene-1-carbohydrazide", "2-Hydroxybenzene-1-carbohydrazonic acid"], "SMILES": "C(NN)(=O)C1=C(O)C=CC=C1", "physical_data": {"Molecular Weight": "152.15", "Molecular Formula": "C7H8N2O2", "Boiling Point": "147-149 \u00b0C", "Melting Point": "147-150 \u00b0C"}}