{"cas_no": "936-05-0", "cn_name": "1-\u7532\u57fa-5-\u785d\u57fa-2-\u7f9f\u7532\u57fa\u54aa\u5511", "en_name": ["2-Hydroxymethyl-1-methyl-5-nitroimidazole", "1H-Imidazole-2-methanol, 1-methyl-5-nitro-", "Imidazole-2-methanol, 1-methyl-5-nitro-", "1-Methyl-5-nitro-1H-imidazole-2-methanol", "2-Hydroxymethyl-1-methyl-5-nitroimidazole", "1-Methyl-2-hydroxymethyl-5-nitroimidazole", "1-Methyl-5-nitro-2-imidazolemethanol", "Hydroxydimetridazole", "(1-Methyl-5-nitro-1H-imidazol-2-yl)-methanol", "(1-Methyl-5-nitroimidazol-2-yl)methanol", "(1-Methyl-5-nitro-1H-imidazol-2-yl)methanol"], "SMILES": "N(=O)(=O)C=1N(C)C(CO)=NC1", "physical_data": {"Molecular Weight": "157.13", "Molecular Formula": "C5H7N3O3", "Melting Point": "116-117 \u00b0C"}}