{"cas_no": "936-59-4", "cn_name": "3-\u6c2f\u4ee3\u82ef\u4e19\u916e", "en_name": ["3-Chloropropiophenone", "1-Propanone, 3-chloro-1-phenyl-", "Propiophenone, 3-chloro-", "3-Chloro-1-phenyl-1-propanone", "\u03b2-Chloroethyl phenyl ketone", "\u03b2-Chloropropiophenone", "3-Chloropropiophenone", "\u03c9-Chloropropiophenone", "2-Chloroethyl phenyl ketone", "NSC 227202", "NSC 37238", "1-Phenyl-3-chloro-1-propanone", "3-Chloro-1-phenylpropan-1-one", "\u03b2-Chloropropanophenone"], "SMILES": "C(CCCl)(=O)C1=CC=CC=C1", "physical_data": {"Molecular Weight": "168.62", "Molecular Formula": "C9H9ClO", "Boiling Point": "255-265 \u00b0C", "Melting Point": "57 \u00b0C", "Density": "1.0983 g/cm\u00b3 @ Temp: 20 \u00b0C"}}