{"cas_no": "936-49-2", "cn_name": "2-\u82ef\u57fa\u54aa\u5511\u5549", "en_name": ["2-Phenylimidazoline", "1H-Imidazole, 4,5-dihydro-2-phenyl-", "2-Imidazoline, 2-phenyl-", "4,5-Dihydro-2-phenyl-1H-imidazole", "2-Phenylimidazoline", "2-Phenyl-2-imidazoline", "2-Phenyl-4,5-dihydroimidazole", "Curezol 2PZ-L", "Vestagon B 31", "B 31", "Veba B 31", "NSC 54747", "2-Phenyl-4,5-dihydro-1H-imidazole", "2PZ-L", "Eutomer B 31", "Jietongda SA 31", "SA 31", "Curezol 2PZL-T"], "SMILES": "C=1(NCCN1)C2=CC=CC=C2", "physical_data": {"Molecular Weight": "146.19", "Molecular Formula": "C9H10N2", "Boiling Point": "162 \u00b0C", "Melting Point": "102-103 \u00b0C"}}