{"cas_no": "936-52-7", "cn_name": "N-(1-\u73af\u620a\u70ef\u57fa)\u5417\u5549", "en_name": ["1-Morpholinocyclopentene", "Morpholine, 4-(1-cyclopenten-1-yl)-", "4-(1-Cyclopenten-1-yl)morpholine", "1-Morpholino-1-cyclopentene", "1-Morpholinocyclopentene", "Cyclopentanone morpholine enamine", "4-(1-Cyclopentenyl)morpholine", "1-Morpholinylcyclopentene", "N-(1-Cyclopentenyl)morpholine", "1-(4-Morpholino)-1-cyclopentene", "NSC 86131", "1-(Morpholin-4-yl)cyclopentene", "N-(1-Cyclopenten-1-yl)morpholine"], "SMILES": "C=1(CCCC1)N2CCOCC2", "physical_data": {"Molecular Weight": "153.22", "Molecular Formula": "C9H15NO", "Boiling Point": "97 \u00b0C @ Press: 7.5 Torr", "Melting Point": "122-127 \u00b0C (decomp)"}}