{"cas_no": "93609-84-8", "cn_name": "5-\u4e59\u9170\u57fa-8-\u82c4\u6c27\u57fa-1H-\u55b9\u5549-2-\u916e", "en_name": ["5-Acetyl-8-(phenylmethoxy)-2(1H)-quinolinone", "2(1H)-Quinolinone, 5-acetyl-8-(phenylmethoxy)-", "5-Acetyl-8-(phenylmethoxy)-2(1H)-quinolinone", "5-Acetyl-8-(benzyloxy)carbostyril", "5-Acetyl-8-benzyloxy-2(1H)-quinolinone", "5-Acetyl-8-benzyloxy-1H-quinolin-2-one", "8-(Benzyloxy)-5-(1-oxoethyl)-1H-quinolin-2-one"], "SMILES": "O(CC1=CC=CC=C1)C2=C3C(=C(C(C)=O)C=C2)C=CC(=O)N3", "physical_data": {"Molecular Weight": "293.32", "Molecular Formula": "C18H15NO3", "Melting Point": "170 \u00b0C"}}