{"cas_no": "936250-20-3", "cn_name": "3-\u7532\u57fa\u5421\u5511-4-\u787c\u9178\u9891\u90a3\u9187\u916f", "en_name": ["3-Methylpyrazole-4-boronic acid pinacol ester", "1H-Pyrazole, 3-methyl-4-(4,4,5,5-tetramethyl-1,3,2-dioxaborolan-2-yl)-", "3-Methyl-4-(4,4,5,5-tetramethyl-1,3,2-dioxaborolan-2-yl)-1H-pyrazole", "(3-Methyl-1H-pyrazol-4-yl)boronic acid pinacol ester", "3-Methylpyrazole-4-boronic acid pinacol ester", "4-(4,4,5,5-Tetramethyl-1,3,2-dioxaborolan-2-yl)-3-(methyl)-1H-pyrazole"], "SMILES": "CC=1C(B2OC(C)(C)C(C)(C)O2)=CNN1", "physical_data": {"Molecular Weight": "208.07", "Molecular Formula": "C10H17BN2O2", "Melting Point": "113-115 \u00b0C"}}