{"cas_no": "936250-22-5", "cn_name": "2-\u6c28\u57fa\u5627\u5576-5-\u787c\u9178", "en_name": ["(2-Aminopyrimidin-5-yl)boronic acid", "Boronic acid, B-(2-amino-5-pyrimidinyl)-", "B-(2-Amino-5-pyrimidinyl)boronic acid", "(2-Aminopyrimidin-5-yl)boronic acid", "2-Aminopyrimidine-5-boronic acid"], "SMILES": "B(O)(O)C=1C=NC(N)=NC1", "physical_data": {"Molecular Weight": "138.92", "Molecular Formula": "C4H6BN3O2", "Melting Point": "&gt;300 \u00b0C"}}