{"cas_no": "936329-95-2", "cn_name": "\u4e8c\u4e59\u6c28\u57fa\u7532\u57fa\u4e09\u6c1f\u787c\u9178\u94be", "en_name": ["Borate(1-), [(diethylamino)methyl]trifluoro-, potassium (1:1), (T-4)-", "Borate(1-), [(diethylamino)methyl]trifluoro-, potassium (1:1), (T-4)-"], "SMILES": "[CH2-](N(CC)CC)[B+3]([F-])([F-])[F-].[K+]", "physical_data": {"Molecular Weight": "", "Molecular Formula": "C5H12BF3N.K", "Melting Point": "100-102 \u00b0C"}}