{"cas_no": "936329-97-4", "cn_name": "(4-\u53d4\u4e01\u6c27\u7fb0\u57fa\u54cc\u55ea-1-\u57fa)\u7532\u57fa\u4e09\u6c1f\u787c\u9178\u94be", "en_name": ["Borate(1-), [[4-[(1,1-dimethylethoxy)carbonyl]-1-piperazinyl]methyl]trifluoro-, potassium (1:1), (T-4)-", "Borate(1-), [[4-[(1,1-dimethylethoxy)carbonyl]-1-piperazinyl]methyl]trifluoro-, potassium (1:1), (T-4)-"], "SMILES": "[CH2-]([B+3]([F-])([F-])[F-])N1CCN(C(OC(C)(C)C)=O)CC1.[K+]", "physical_data": {"Molecular Weight": "", "Molecular Formula": "C10H19BF3N2O2.K", "Melting Point": "200 \u00b0C (decomp)"}}