{"cas_no": "93697-74-6", "cn_name": "\u5421\u5627\u78fa\u9686", "en_name": ["Pyrazosulfuron-ethyl", "1H-Pyrazole-4-carboxylic acid, 5-[[[[(4,6-dimethoxy-2-pyrimidinyl)amino]carbonyl]amino]sulfonyl]-1-methyl-, ethyl ester", "Pyrazosulfuron-ethyl", "Agreen", "Sirius", "Ethyl 5-(4,6-dimethoxy pyrimidine-2-ylcarbamoylsulfamoyl)-1-methylpyrazole-4-carboxylate", "Ethyl-5-(4,6-dimethoxypyrimidin-2-ylcarbamoyl sulfamoyl)-1-methylpyrazole-4-carboxylate", "Saathi", "Pyrasulfuron-ethyl"], "SMILES": "C(OCC)(=O)C1=C(S(NC(NC=2N=C(OC)C=C(OC)N2)=O)(=O)=O)N(C)N=C1", "physical_data": {"Molecular Weight": "414.39", "Molecular Formula": "C14H18N6O7S", "Melting Point": "181.5 \u00b0C"}}