{"cas_no": "937-63-3", "cn_name": "\u5bf9\u7532\u82ef\u57fa\u6c2f\u5316\u4e9a\u786b\u4ee3\u7532\u9178", "en_name": ["O-(4-Methylphenyl) carbonochloridothioate", "Carbonochloridothioic acid, O-(4-methylphenyl) ester", "Formic acid, chlorothio-, O-p-tolyl ester", "O-(4-Methylphenyl) carbonochloridothioate", "p-Tolyloxythiocarbonyl chloride", "4-Methylphenyl chlorothioformate", "p-Tolyl chlorothionoformate", "O-4-Methylphenyl chlorothioformate"], "SMILES": "O(C(Cl)=S)C1=CC=C(C)C=C1", "physical_data": {"Molecular Weight": "186.66", "Molecular Formula": "C8H7ClOS", "Boiling Point": "115-119 \u00b0C @ Press: 13 Torr"}}