{"cas_no": "937-52-0", "cn_name": "1-\u7532\u57fa-3-\u82ef\u57fa\u4e19\u80fa", "en_name": ["(-)-1-Methyl-3-phenylpropylamine", "Benzenepropanamine, \u03b1-methyl-, (\u03b1R)-", "Propylamine, 1-methyl-3-phenyl-, (R)-(-)-", "Benzenepropanamine, \u03b1-methyl-, (R)-", "(\u03b1R)-\u03b1-Methylbenzenepropanamine", "(-)-\u03b1-Methylbenzenepropanamine", "(R)-1-Methyl-3-phenylpropylamine", "(R)-\u03b1-Methylbenzenepropanamine", "(-)-1-Methyl-3-phenylpropylamine", "(2R)-2-Amino-4-phenylbutane", "(2R)-4-Phenylbutan-2-amine", "(R)-4-Phenyl-2-butanamine", "(2R)-4-Phenylbutan-2-amine", "(R)-(-)-1-Methyl-3-phenylpropylamine"], "SMILES": "C(CC(C)N)C1=CC=CC=C1", "physical_data": {"Molecular Weight": "149.23", "Molecular Formula": "C10H15N", "Boiling Point": "40-50 \u00b0C @ Press: 0.05 Torr"}}