{"cas_no": "937-30-4", "cn_name": "\u5bf9\u4e59\u57fa\u82ef\u4e59\u916e", "en_name": ["4\u2032-Ethylacetophenone", "Ethanone, 1-(4-ethylphenyl)-", "Acetophenone, 4\u2032-ethyl-", "Acetophenone, p-ethyl-", "1-(4-Ethylphenyl)ethanone", "p-Ethylacetophenone", "p-Acetylethylbenzene", "4\u2032-Ethylacetophenone", "p-Ethylphenyl methyl ketone", "1-Acetyl-4-ethylbenzene", "NSC 6768", "p-Ethyl-hypnone", "1-(4-Ethylphenyl)ethan-1-one"], "SMILES": "C(C)(=O)C1=CC=C(CC)C=C1", "physical_data": {"Molecular Weight": "148.20", "Molecular Formula": "C10H12O", "Boiling Point": "114 \u00b0C @ Press: 10 Torr", "Melting Point": "-20.6 \u00b0C", "Density": "0.99272 g/cm\u00b3 @ Temp: 420 \u00b0C"}}