{"cas_no": "937-05-3", "cn_name": "\u987a-4-\u53d4\u4e01\u57fa\u73af\u5df1\u9187", "en_name": ["cis-4-tert-Butylcyclohexanol", "Cyclohexanol, 4-(1,1-dimethylethyl)-, cis-", "Cyclohexanol, 4-tert-butyl-, cis-", "cis-4-(1,1-Dimethylethyl)cyclohexanol", "cis-4-tert-Butylcyclohexanol", "cis-1-tert-Butyl-4-cyclohexanol", "cis-p-tert-Butylcyclohexanol", "cis-4-tert-Butyl-1-cyclohexanol", "4-cis-tert-Butylcyclohexanol"], "SMILES": "C(C)(C)(C)C1CCC(O)CC1", "physical_data": {"Molecular Weight": "156.27", "Molecular Formula": "C10H20O", "Melting Point": "79.5-81 \u00b0C"}}