{"cas_no": "937-20-2", "cn_name": "2,4'-\u4e8c\u6c2f\u82ef\u4e59\u916e", "en_name": ["2,4\u2032-Dichloroacetophenone", "Ethanone, 2-chloro-1-(4-chlorophenyl)-", "Acetophenone, 2,4\u2032-dichloro-", "2-Chloro-1-(4-chlorophenyl)ethanone", "p-Chlorophenacyl chloride", "\u03b1-Chloro-p-chloroacetophenone", "\u03c9-Chloro-p-chloroacetophenone", "2,4\u2032-Dichloroacetophenone", "4-Chlorophenacyl chloride", "Chloromethyl 4-chlorophenyl ketone", "2-Chloro-1-(4-chlorophenyl)-1-ethanone", "1-(4-Chlorophenyl)-2-chloroethanone", "2-Chloro-4\u2032-chloroacetophenone", "NSC 41669", "\u03b1-Chloro-4-chloroacetophenone", "2-Chloro-1-(4\u2032-chlorophenyl)-ethanone", "4\u2032-Chloro-2-chloroacetophenone"], "SMILES": "C(CCl)(=O)C1=CC=C(Cl)C=C1", "physical_data": {"Molecular Weight": "189.04", "Molecular Formula": "C8H6Cl2O", "Boiling Point": "270 \u00b0C", "Melting Point": "101.5 \u00b0C"}}