{"cas_no": "937-62-2", "cn_name": "\u6c2f\u7532\u9178\u5bf9\u7532\u82ef\u916f", "en_name": ["Carbonochloridic acid, 4-methylphenyl ester", "Carbonochloridic acid, 4-methylphenyl ester", "Formic acid, chloro-, p-tolyl ester", "Chloroformic acid p-tolyl ester", "p-Tolyl chloroformate", "p-Methylphenyl chlorocarbonate", "p-Methylphenyl chloroformate", "4-Methylphenyl chloroformate", "p-Methylphenoxycarbonyl chloride", "4-Tolyl chloroformate", "p-Tolyl carbonochloridate", "4-Methylphenyl carbonochloridate"], "SMILES": "O(C(Cl)=O)C1=CC=C(C)C=C1", "physical_data": {"Molecular Weight": "170.59", "Molecular Formula": "C8H7ClO2", "Boiling Point": "108 \u00b0C @ Press: 10 Torr"}}