{"cas_no": "937-16-6", "cn_name": "5-\u6eb4-1H-\u5421\u54af-2-\u7fa7\u9178\u7532\u916f", "en_name": ["1H-Pyrrole-2-carboxylic acid, 4,5-dibromo-, methyl ester", "1H-Pyrrole-2-carboxylic acid, 4,5-dibromo-, methyl ester", "Pyrrole-2-carboxylic acid, 4,5-dibromo-, methyl ester", "NSC 288036", "Methyl 4,5-dibromo-1H-pyrrole-2-carboxylate", "4,5-Dibromopyrrole-2-methylcarboxylate"], "SMILES": "C(OC)(=O)C1=CC(Br)=C(Br)N1", "physical_data": {"Molecular Weight": "282.92", "Molecular Formula": "C6H5Br2NO2", "Melting Point": "155 \u00b0C"}}