{"cas_no": "937-14-4", "cn_name": "\u95f4\u6c2f\u8fc7\u6c27\u82ef\u7532\u9178", "en_name": ["m-Chloroperbenzoic acid", "Benzenecarboperoxoic acid, 3-chloro-", "Peroxybenzoic acid, m-chloro-", "3-Chlorobenzenecarboperoxoic acid", "3-Chloroperbenzoic acid", "3-Chloroperoxybenzoic acid", "m-Chlorobenzoyl hydroperoxide", "m-Chloroperoxobenzoic acid", "MCPBA", "m-Chloroperbenzoic acid", "m-Chloroperoxybenzoic acid", "m-Chloroperoxybenzoic acid", "NSC 97094", "3-Chlorobenzoperoxoic acid", "Meta-chloroperoxybenzoic acid", "3-Chlorobenzene-1-carboperoxoic acid"], "SMILES": "C(OO)(=O)C1=CC(Cl)=CC=C1", "physical_data": {"Molecular Weight": "172.57", "Molecular Formula": "C7H5ClO3", "Melting Point": "93 \u00b0C (decomp)"}}