{"cas_no": "937-41-7", "cn_name": "\u4e19\u70ef\u9178\u82ef\u916f", "en_name": ["Phenyl acrylate", "2-Propenoic acid, phenyl ester", "Acrylic acid, phenyl ester", "Phenyl acrylate", "Phenyl propenoate", "Phenyl 2-propenoate"], "SMILES": "O(C(C=C)=O)C1=CC=CC=C1", "physical_data": {"Molecular Weight": "148.16", "Molecular Formula": "C9H8O2", "Boiling Point": "202-203 \u00b0C", "Density": "1.0762 g/cm\u00b3 @ Temp: 20 \u00b0C"}}