{"cas_no": "937-64-4", "cn_name": "4-\u6c2f\u82ef\u57fa\u6c2f\u786b\u4ee3\u7532\u9178\u916f", "en_name": ["O-(4-Chlorophenyl) carbonochloridothioate", "Carbonochloridothioic acid, O-(4-chlorophenyl) ester", "Formic acid, chlorothio-, O-(p-chlorophenyl) ester", "O-(4-Chlorophenyl) carbonochloridothioate", "p-Chlorophenyl chlorothionoformate", "O-4-Chlorophenyl chlorothioformate", "4-Chlorophenyl thionochloroformate", "4-Chlorophenyl chlorothionoformate"], "SMILES": "O(C(Cl)=S)C1=CC=C(Cl)C=C1", "physical_data": {"Molecular Weight": "207.08", "Molecular Formula": "C7H4Cl2OS", "Boiling Point": "123-126 \u00b0C @ Press: 12 Torr"}}