{"cas_no": "937-31-5", "cn_name": "\u5bf9\u785d\u57fa\u82ef\u4e59\u7094", "en_name": ["1-Ethynyl-4-nitrobenzene", "Benzene, 1-ethynyl-4-nitro-", "1-Ethynyl-4-nitrobenzene", "(p-Nitrophenyl)acetylene", "p-Ethynylnitrobenzene", "(4-Nitrophenyl)ethyne", "(4-Nitrophenyl)acetylene", "4-Ethynylnitrobenzene", "1-Nitro-4-ethynylbenzene", "4-Ethynyl-1-nitrobenzene", "p-Nitroethynylbenzene", "NSC 71089", "4-Nitroethynylbenzene"], "SMILES": "N(=O)(=O)C1=CC=C(C#C)C=C1", "physical_data": {"Molecular Weight": "147.13", "Molecular Formula": "C8H5NO2", "Melting Point": "147-148 \u00b0C"}}