{"cas_no": "93701-32-7", "cn_name": "1,3-\u4e8c\u6eb4-2-(\u6eb4\u7532\u57fa)\u82ef", "en_name": ["1,3-Dibromo-2-(bromomethyl)benzene", "Benzene, 1,3-dibromo-2-(bromomethyl)-", "1,3-Dibromo-2-(bromomethyl)benzene", "2,6-Dibromobenzyl bromide"], "SMILES": "C(Br)C1=C(Br)C=CC=C1Br", "physical_data": {"Molecular Weight": "328.83", "Molecular Formula": "C7H5Br3", "Melting Point": "80-81 \u00b0C"}}