{"cas_no": "93718-83-3", "cn_name": "NSC 95397", "en_name": ["2,3-Bis(2-hydroxyethylthio)-1,4-naphthalenedione", "1,4-Naphthalenedione, 2,3-bis[(2-hydroxyethyl)thio]-", "1,4-Naphthoquinone, 2,3-bis[(2-hydroxyethyl)thio]-", "2,3-Bis[(2-hydroxyethyl)thio]-1,4-naphthalenedione", "NSC 95397", "2,3-Bis(2-hydroxyethylthio)-1,4-naphthalenedione", "2,3-Bis(2-hydroxyethylsulfanyl)naphthalene-1,4-dione"], "SMILES": "O=C1C=2C(C(=O)C(SCCO)=C1SCCO)=CC=CC2", "physical_data": {"Molecular Weight": "310.39", "Molecular Formula": "C14H14O4S2", "Melting Point": "117-119 \u00b0C"}}