{"cas_no": "937602-15-8", "cn_name": "N-METHYL-5-(TRIFLUOROMETHYL)PYRIDIN-2-AMINE", "en_name": ["N-Methyl(5-trifluoromethylpyridin-2-yl)amine", "2-Pyridinamine, N-methyl-5-(trifluoromethyl)-", "N-Methyl-5-(trifluoromethyl)-2-pyridinamine", "N-Methyl(5-trifluoromethylpyridin-2-yl)amine"], "SMILES": "C(F)(F)(F)C=1C=CC(NC)=NC1", "physical_data": {"Molecular Weight": "176.14", "Molecular Formula": "C7H7F3N2", "Melting Point": "50-53 \u00b0C"}}