{"cas_no": "93778-57-5", "cn_name": "DMT\u4fdd\u62a4\u6027\u8131\u6c27\u808c\u82f7", "en_name": ["5\u2032-O-[Bis(4-methoxyphenyl)phenylmethyl]-2\u2032-deoxyinosine", "Inosine, 5\u2032-O-[bis(4-methoxyphenyl)phenylmethyl]-2\u2032-deoxy-", "5\u2032-O-[Bis(4-methoxyphenyl)phenylmethyl]-2\u2032-deoxyinosine"], "SMILES": "C(OCC1OC(CC1O)N2C3=C(N=C2)C(=O)N=CN3)(C4=CC=C(OC)C=C4)(C5=CC=C(OC)C=C5)C6=CC=CC=C6", "physical_data": {"Molecular Weight": "554.59", "Molecular Formula": "C31H30N4O6", "Melting Point": "137-140 \u00b0C (decomp)"}}