{"cas_no": "93778-15-5", "cn_name": "2,3-DIHYDROXYPROPYL 4-HYDROXYBENZOATE", "en_name": ["Benzoic acid, 4-hydroxy-, 2,3-dihydroxypropyl ester", "Benzoic acid, 4-hydroxy-, 2,3-dihydroxypropyl ester", "Benzoic acid, p-hydroxy-, 2,3-dihydroxypropyl ester", "D 11706", "2,3-Dihydroxypropyl 4-hydroxybenzoate"], "SMILES": "C(OCC(CO)O)(=O)C1=CC=C(O)C=C1", "physical_data": {"Molecular Weight": "212.20", "Molecular Formula": "C10H12O5", "Melting Point": "154 \u00b0C"}}