{"cas_no": "93793-83-0", "cn_name": "\u76d0\u9178\u7f57\u6c99\u66ff\u4e01\u918b\u9178\u916f", "en_name": ["Roxatidine acetate hydrochloride", "Acetamide, 2-(acetyloxy)-N-[3-[3-(1-piperidinylmethyl)phenoxy]propyl]-, hydrochloride (1:1)", "Acetamide, 2-(acetyloxy)-N-[3-[3-(1-piperidinylmethyl)phenoxy]propyl]-, monohydrochloride", "TZU 0460", "HOE 760", "Roxatidine acetate hydrochloride", "Altat", "Neo H2", "Roxit", "Gastralgin", "Zarocs"], "SMILES": "C(C1=CC(OCCCNC(COC(C)=O)=O)=CC=C1)N2CCCCC2.Cl", "physical_data": {"Molecular Weight": "", "Molecular Formula": "C19H28N2O4.ClH", "Melting Point": "145-146 \u00b0C"}}