{"cas_no": "938-35-2", "cn_name": "6-\u6c2f-4-\u7532\u57fa-2,3-\u4e8c\u6c22-1H-\u831a-1-\u916e", "en_name": ["6-Chloro-2,3-dihydro-4-methyl-1H-inden-1-one", "1H-Inden-1-one, 6-chloro-2,3-dihydro-4-methyl-", "1-Indanone, 6-chloro-4-methyl-", "6-Chloro-2,3-dihydro-4-methyl-1H-inden-1-one"], "SMILES": "CC1=C2C(=CC(Cl)=C1)C(=O)CC2", "physical_data": {"Molecular Weight": "180.63", "Molecular Formula": "C10H9ClO", "Melting Point": "111-112 \u00b0C"}}