{"cas_no": "938-09-0", "cn_name": "2-\u6c2f\u4e59\u57fa\u82ef\u57fa\u781c", "en_name": ["[(2-Chloroethyl)sulfonyl]benzene", "Benzene, [(2-chloroethyl)sulfonyl]-", "Sulfone, 2-chloroethyl phenyl", "[(2-Chloroethyl)sulfonyl]benzene", "2-(Phenylsulfonyl)ethyl chloride", "2-Chloroethyl phenyl sulfone", "Phenyl \u03b2-chloroethyl sulfone", "\u03b2-Chloroethyl phenyl sulfone", "2-Chloro-1-(phenylsulfonyl)ethane", "1-Chloro-2-(phenylsulfonyl)ethane", "(2-Chloroethanesulfonyl)benzene", "NSC 145234", "NSC 207409", "NSC 236821", "(2-Chloroethylsulfonyl)benzene"], "SMILES": "S(CCCl)(=O)(=O)C1=CC=CC=C1", "physical_data": {"Molecular Weight": "204.67", "Molecular Formula": "C8H9ClO2S", "Boiling Point": "168-174 \u00b0C @ Press: 7 Torr", "Melting Point": "52 \u00b0C"}}