{"cas_no": "938-16-9", "cn_name": "2-\u7532\u57fa\u4e19\u916e", "en_name": ["2,2-Dimethyl-1-phenyl-1-propanone", "1-Propanone, 2,2-dimethyl-1-phenyl-", "Pivalophenone", "2,2-Dimethyl-1-phenyl-1-propanone", "tert-Butyl phenyl ketone", "Phenyl tert-butyl ketone", "2,2-Dimethylpropiophenone", "\u03b1,\u03b1-Dimethylpropiophenone", "2,2,2-Trimethylacetophenone", "1-Phenyl-2,2-dimethyl-1-propanone", "\u03b1,\u03b1,\u03b1-Trimethylacetophenone", "Phenyl tert-butyl ketone"], "SMILES": "C(C(C)(C)C)(=O)C1=CC=CC=C1", "physical_data": {"Molecular Weight": "162.23", "Molecular Formula": "C11H14O", "Boiling Point": "220 \u00b0C", "Density": "1.016 g/cm\u00b3 @ Temp: 20 \u00b0C"}}