{"cas_no": "938-95-4", "cn_name": "4-(\u6c2f\u7532\u57fa)\u82ef\u4e59\u9178", "en_name": ["4-Chloro-\u03b1-methylbenzeneacetic acid", "Benzeneacetic acid, 4-chloro-\u03b1-methyl-", "Hydratropic acid, p-chloro-", "4-Chloro-\u03b1-methylbenzeneacetic acid", "2-(4-Chlorophenyl)propionic acid", "2-(p-Chlorophenyl)propionic acid", "p-Chloro-\u03b1-methylphenylacetic acid", "2-(4-Chlorophenyl)propanoic acid", "(\u00b1)-2-(p-Chlorophenyl)propionic acid", "(\u00b1)-2-(4-Chlorophenyl)propionic acid", "4-Chloro-\u03b1-methylphenylacetic acid"], "SMILES": "C(C(O)=O)(C)C1=CC=C(Cl)C=C1", "physical_data": {"Molecular Weight": "184.62", "Molecular Formula": "C9H9ClO2", "Melting Point": "58-58.5 \u00b0C"}}