{"cas_no": "938-55-6", "cn_name": "6-\u4e8c\u7532\u57fa\u6c28\u57fa\u560c\u5464", "en_name": ["6-DMAP", "9H-Purin-6-amine, N,N-dimethyl-", "Adenine, N,N-dimethyl-", "1H-Purin-6-amine, N,N-dimethyl-", "Purine, 6-(dimethylamino)-", "Adenine, N6,N6-dimethyl-", "N,N-Dimethyl-9H-purin-6-amine", "N,N-Dimethyladenine", "6,6-Dimethyladenine", "Dimethyladenine", "6-(Dimethylamino)purine", "N,N-Dimethyl-6-aminopurine", "N6,N6-Dimethyladenine", "NSC 401568", "DMAP", "6-DMAP"], "SMILES": "N(C)(C)C1=C2C(N=CN2)=NC=N1", "physical_data": {"Molecular Weight": "163.18", "Molecular Formula": "C7H9N5", "Melting Point": "251-253 \u00b0C (decomp)"}}