{"cas_no": "938-18-1", "cn_name": "2,4,6-\u4e09\u7532\u57fa\u82ef\u7532\u9170\u6c2f", "en_name": ["2,4,6-Trimethylbenzoyl chloride", "Benzoyl chloride, 2,4,6-trimethyl-", "2,4,6-Trimethylbenzoyl chloride", "Mesitoyl chloride", "Mesitylcarbonyl chloride", "2,4,6-Trimethylbenzoic acid chloride", "NSC 97606", "sym-Trimethylbenzoic acid chloride"], "SMILES": "C(Cl)(=O)C1=C(C)C=C(C)C=C1C", "physical_data": {"Molecular Weight": "182.65", "Molecular Formula": "C10H11ClO", "Boiling Point": "125-126 \u00b0C @ Press: 30 Torr"}}