{"cas_no": "938-85-2", "cn_name": "2-\u6c28\u57fa-6-\u7f9f\u57fa-1-\u7532\u57fa\u560c\u5464", "en_name": ["1-Methylguanine", "6H-Purin-6-one, 2-amino-1,9-dihydro-1-methyl-", "Guanine, 1-methyl-", "6H-Purin-6-one, 2-amino-1,7-dihydro-1-methyl-", "2-Amino-1,9-dihydro-1-methyl-6H-purin-6-one", "1-Methylguanine", "N1-Methylguanine", "NSC 50718", "2-Imino-1-methyl-2,3,6,9-tetrahydro-1H-purin-6-one", "2-Amino-1-methyl-1H-purin-6(7H)-one", "2-Amino-1-methyl-6,7-dihydro-1H-purin-6-one"], "SMILES": "O=C1C2=C(N=C(N)N1C)N=CN2", "physical_data": {"Molecular Weight": "165.15", "Molecular Formula": "C6H7N5O", "Melting Point": "&gt;350 \u00b0C"}}