{"cas_no": "938-75-0", "cn_name": "3,4-\u4e8c\u7532\u57fa-1H-\u5421\u54af-2-\u7fa7\u9178\u4e59\u916f", "en_name": ["Ethyl 3,4-dimethyl-1H-pyrrole-2-carboxylate", "1H-Pyrrole-2-carboxylic acid, 3,4-dimethyl-, ethyl ester", "Pyrrole-2-carboxylic acid, 3,4-dimethyl-, ethyl ester", "Ethyl 3,4-dimethyl-1H-pyrrole-2-carboxylate", "Ethyl 3,4-dimethylpyrrole-2-carboxylate", "2-Carboethoxy-3,4-dimethyl-1H-pyrrole", "2-Ethoxycarbonyl-3,4-dimethylpyrrole", "5-Ethoxycarbonyl-3,4-dimethylpyrrole", "Ethyl 3,4-dimethyl-5-pyrrolecarboxylic acid", "2-Ethoxycarbonyl-3,4-dimethyl-1H-pyrrole", "3,4-Dimethyl-1H-pyrrole-2-carboxylic acid ethyl ester"], "SMILES": "C(OCC)(=O)C1=C(C)C(C)=CN1", "physical_data": {"Molecular Weight": "167.21", "Molecular Formula": "C9H13NO2", "Boiling Point": "120-125 \u00b0C @ Press: 11 Torr", "Melting Point": "96 \u00b0C"}}