{"cas_no": "938-97-6", "cn_name": "\u5bf9\u7f9f\u57fa\u82ef\u7518\u6c28\u9178", "en_name": ["DL-p-Hydroxyphenylglycine", "Benzeneacetic acid, \u03b1-amino-4-hydroxy-", "Glycine, 2-(p-hydroxyphenyl)-", "\u03b1-Amino-4-hydroxybenzeneacetic acid", "(4-Hydroxyphenyl)glycine", "\u03b1-(4-Hydroxyphenyl)glycine", "\u03b1-(p-Hydroxyphenyl)glycine", "\u03b1-Amino-p-hydroxyphenylacetic acid", "2-(4-Hydroxyphenyl)glycine", "DL-2-(p-Hydroxyphenyl)glycine", "(\u00b1)-\u03b1-Amino-4-hydroxybenzeneacetic acid", "DL-2-(4-Hydroxyphenyl)glycine", "DL-p-Hydroxyphenylglycine", "(\u00b1)-2-(4-Hydroxyphenyl)glycine", "(\u00b1)-Amino(p-hydroxyphenyl)acetic acid", "DL-\u03b1-Amino(4-hydroxyphenyl)acetic acid", "(\u00b1)-p-Hydroxyphenylglycine", "DL-4-Hydroxyphenylglycine", "(RS)-2-(4-Hydroxyphenyl)glycine", "(\u00b1)-2-(p-Hydroxyphenyl)glycine", "p-Hydroxyphenylglycine", "NSC 30081", "\u03b1-Amino-4-hydroxyphenylacetic acid", "2-Amino-2-(4-hydroxyphenyl)aceticacid", "2-Amino-2-(4-hydroxyphenyl)acetic acid"], "SMILES": "C(C(O)=O)(N)C1=CC=C(O)C=C1", "physical_data": {"Molecular Weight": "167.16", "Molecular Formula": "C8H9NO3", "Melting Point": "229-230 \u00b0C"}}