{"cas_no": "938-79-4", "cn_name": "(R)-(-)-2-\u82ef\u57fa\u4e01\u9178", "en_name": ["(-)-2-Phenylbutyric acid", "Benzeneacetic acid, \u03b1-ethyl-, (\u03b1R)-", "Butyric acid, 2-phenyl-, (R)-(-)-", "Benzeneacetic acid, \u03b1-ethyl-, (R)-", "(\u03b1R)-\u03b1-Ethylbenzeneacetic acid", "(R)-(-)-\u03b1-Ethylphenylacetic acid", "(-)-2-Phenylbutyric acid", "(-)-\u03b1-Phenylbutyric acid", "(R)-(-)-2-Phenylbutanoic acid", "(R)-2-Phenylbutanoic acid", "(R)-2-Phenylbutyric acid", "(R)-(-)-2-Phenylbutyric acid", "(-)-2-Phenylbutanoic acid", "(R)-\u03b1-Ethylbenzeneacetic acid", "(-)-(R)-2-Phenylbutyric acid", "(2R)-2-Phenylbutyric acid", "(2R)-2-Phenylbutanoic acid", "(2R)-2-Phenylbutanoic acid", "(r)-2-Phenylbutanoic acid", "(R)-(-)-2-Phenylbutyric acid"], "SMILES": "C(C(O)=O)(CC)C1=CC=CC=C1", "physical_data": {"Molecular Weight": "164.20", "Molecular Formula": "C10H12O2", "Melting Point": "40-42 \u00b0C"}}