{"cas_no": "938-46-5", "cn_name": "2',5'-\u4e8c\u7f9f\u57fa\u82ef\u4e19\u916e", "en_name": ["2\u2032,5\u2032-Dihydroxypropiophenone", "1-Propanone, 1-(2,5-dihydroxyphenyl)-", "Propiophenone, 2\u2032,5\u2032-dihydroxy-", "1-(2,5-Dihydroxyphenyl)-1-propanone", "2\u2032,5\u2032-Dihydroxypropiophenone", "1-(2,5-dihydroxyphenyl)-1-propanone", "NSC 87567"], "SMILES": "C(CC)(=O)C1=C(O)C=CC(O)=C1", "physical_data": {"Molecular Weight": "166.17", "Molecular Formula": "C9H10O3", "Melting Point": "96 \u00b0C"}}