{"cas_no": "938-25-0", "cn_name": "1,2-\u4e8c\u6c28\u57fa\u8418", "en_name": ["1,2-Naphthalenediamine", "1,2-Naphthalenediamine", "1,2-Diaminonaphthalene", "NSC 62691"], "SMILES": "NC=1C2=C(C=CC1N)C=CC=C2", "physical_data": {"Molecular Weight": "158.20", "Molecular Formula": "C10H10N2", "Boiling Point": "215 \u00b0C @ Press: 1 x 10<sup>-3</sup>-3 x 10<sup>-3</sup> Torr", "Melting Point": "98.5 \u00b0C"}}