{"cas_no": "938-73-8", "cn_name": "2-\u4e59\u6c27\u57fa\u82ef\u7532\u9170\u80fa", "en_name": ["2-Ethoxybenzamide", "Benzamide, 2-ethoxy-", "Benzamide, o-ethoxy-", "2-Ethoxybenzamide", "Ethenzamide", "Ethosalicyl", "o-Ethoxybenzamide", "Etosalicyl", "Ethbenzamide", "Lucamide", "Protopyrin", "Trancalgyl", "Etamide", "Pirosolvina", "Ethenzamid", "Etocil", "Etosalicil", "Eusal", "Katagrippe", "NSC 28787", "Etenzamide"], "SMILES": "C(N)(=O)C1=C(OCC)C=CC=C1", "physical_data": {"Molecular Weight": "165.19", "Molecular Formula": "C9H11NO2", "Melting Point": "133 \u00b0C"}}