{"cas_no": "938-45-4", "cn_name": "1-(2-\u7f9f\u57fa-5-\u7532\u57fa\u82ef\u57fa)-1-\u4e19\u916e", "en_name": ["1-(2-Hydroxy-5-methylphenyl)-1-propanone", "1-Propanone, 1-(2-hydroxy-5-methylphenyl)-", "Propiophenone, 2\u2032-hydroxy-5\u2032-methyl-", "1-(2-Hydroxy-5-methylphenyl)-1-propanone", "2\u2032-Hydroxy-5\u2032-methylpropiophenone", "2-Propionyl-p-cresol", "1-(2-Hydroxy-5-methylphenyl)propan-1-one"], "SMILES": "C(CC)(=O)C1=C(O)C=CC(C)=C1", "physical_data": {"Molecular Weight": "164.20", "Molecular Formula": "C10H12O2", "Boiling Point": "123-124 \u00b0C @ Press: 11 Torr", "Melting Point": "2 \u00b0C"}}