{"cas_no": "938-96-5", "cn_name": "(4-\u7f9f\u82ef\u57fa)-2-\u4e19\u9178", "en_name": ["2-(4-Hydroxyphenyl)propionic acid", "Benzeneacetic acid, 4-hydroxy-\u03b1-methyl-", "Hydratropic acid, p-hydroxy-", "4-Hydroxy-\u03b1-methylbenzeneacetic acid", "2-(p-Hydroxyphenyl)-propionic acid", "2-(4-Hydroxyphenyl)propionic acid", "2-(4-Hydroxyphenyl)propanoic acid", "Methyl 4-hydroxyphenylacetic acid", "2-(4\u2032-Hydroxyphenyl)-propionic acid"], "SMILES": "C(C(O)=O)(C)C1=CC=C(O)C=C1", "physical_data": {"Molecular Weight": "166.17", "Molecular Formula": "C9H10O3", "Melting Point": "127-127.5 \u00b0C"}}