{"cas_no": "938-33-0", "cn_name": "8-\u7532\u6c27\u57fa\u55b9\u5549", "en_name": ["8-Methoxyquinoline", "Quinoline, 8-methoxy-", "8-Methoxyquinoline"], "SMILES": "O(C)C=1C2=C(C=CC1)C=CC=N2", "physical_data": {"Molecular Weight": "159.18", "Molecular Formula": "C10H9NO", "Boiling Point": "283 \u00b0C", "Melting Point": "49.5 \u00b0C", "Density": "1.012 g/cm\u00b3 @ Temp: 20 \u00b0C"}}