{"cas_no": "93804-29-6", "cn_name": "\u7532\u6c27\u57fa(\u4e8c\u7532\u57fa)\u8f9b\u57fa\u7845\u70f7", "en_name": ["Methoxydimethyloctylsilane", "Silane, methoxydimethyloctyl-", "Methoxydimethyloctylsilane", "Dimethylmethoxy-n-octylsilane", "Dimethylmethoxyoctylsilane", "Dimethyloctylmethoxysilane"], "SMILES": "C(C[Si](OC)(C)C)CCCCCC", "physical_data": {"Molecular Weight": "202.41", "Molecular Formula": "C11H26OSi", "Boiling Point": "221-223 \u00b0C", "Density": "0.813 g/cm\u00b3"}}