{"cas_no": "939-26-4", "cn_name": "2-\u6eb4\u7532\u57fa\u8418", "en_name": ["2-(Bromomethyl)naphthalene", "Naphthalene, 2-(bromomethyl)-", "2-(Bromomethyl)naphthalene", "2-Menaphthyl bromide", "\u03b2-Naphthylmethyl bromide", "\u03b2-(Bromomethyl)naphthalene", "2-Naphthylmethyl bromide", "(Naphthalen-2-yl)methyl bromide", "2-(Bromomethyl)naphthalen"], "SMILES": "C(Br)C1=CC2=C(C=C1)C=CC=C2", "physical_data": {"Molecular Weight": "221.09", "Molecular Formula": "C11H9Br", "Boiling Point": "168-172 \u00b0C @ Press: 13 Torr", "Melting Point": "56 \u00b0C"}}