{"cas_no": "939-48-0", "cn_name": "\u82ef\u7532\u9178\u5f02\u4e19\u916f", "en_name": ["Isopropyl benzoate", "Benzoic acid, 1-methylethyl ester", "Benzoic acid, isopropyl ester", "Isopropyl benzoate", "Benzoic acid iso-propyl ester", "1-Methylethyl benzoate"], "SMILES": "C(OC(C)C)(=O)C1=CC=CC=C1", "physical_data": {"Molecular Weight": "164.20", "Molecular Formula": "C10H12O2", "Boiling Point": "216 \u00b0C"}}