{"cas_no": "939-80-0", "cn_name": "4-\u6c2f-3-\u785d\u57fa\u82ef\u7532\u8148", "en_name": ["4-Chloro-3-nitrobenzonitrile", "Benzonitrile, 4-chloro-3-nitro-", "4-Chloro-3-nitrobenzonitrile", "4-Chloro-3-nitrobenzenenitrile", "2-Chloro-5-cyanonitrobenzene", "4-Cyano-2-nitro-1-chlorobenzene", "3-Nitro-4-chlorobenzonitrile"], "SMILES": "N(=O)(=O)C1=CC(C#N)=CC=C1Cl", "physical_data": {"Molecular Weight": "182.56", "Molecular Formula": "C7H3ClN2O2", "Melting Point": "110 \u00b0C"}}