{"cas_no": "939-52-6", "cn_name": "4-\u6c2f\u82ef\u4e01\u916e", "en_name": ["4-Chlorobutyrophenone", "1-Butanone, 4-chloro-1-phenyl-", "Butyrophenone, 4-chloro-", "4-Chloro-1-phenyl-1-butanone", "\u03b3-Chlorobutyrophenone", "4-Chlorobutyrophenone", "3-Benzoylpropyl chloride", "3-Chloropropyl phenyl ketone", "1-Benzoyl-3-chloropropane", "NSC 76579"], "SMILES": "C(CCCCl)(=O)C1=CC=CC=C1", "physical_data": {"Molecular Weight": "182.65", "Molecular Formula": "C10H11ClO", "Boiling Point": "133.5-135 \u00b0C @ Press: 11 Torr", "Melting Point": "19.5 \u00b0C", "Density": "1.149 g/cm\u00b3 @ Temp: 20 \u00b0C"}}