{"cas_no": "939-23-1", "cn_name": "4-\u82ef\u57fa\u5421\u5576", "en_name": ["4-Phenylpyridine", "Pyridine, 4-phenyl-", "4-Phenylpyridine", "p-Phenylpyridine", "\u03b3-Phenylpyridine", "NSC 70375", "NSC 77935"], "SMILES": "C1(=CC=CC=C1)C=2C=CN=CC2", "physical_data": {"Molecular Weight": "155.20", "Molecular Formula": "C11H9N", "Boiling Point": "281 \u00b0C", "Melting Point": "77.5 \u00b0C"}}