{"cas_no": "939-97-9", "cn_name": "\u5bf9\u53d4\u4e01\u57fa\u82ef\u7532\u919b", "en_name": ["4-tert-Butylbenzaldehyde", "Benzaldehyde, 4-(1,1-dimethylethyl)-", "Benzaldehyde, p-tert-butyl-", "4-(1,1-Dimethylethyl)benzaldehyde", "p-tert-Butylbenzaldehyde", "4-tert-Butylbenzaldehyde", "para-tert-Butylbenzaldehyde"], "SMILES": "C(C)(C)(C)C1=CC=C(C=O)C=C1", "physical_data": {"Molecular Weight": "162.23", "Molecular Formula": "C11H14O", "Boiling Point": "123-125 \u00b0C @ Press: 20 Torr", "Melting Point": "245-246 \u00b0C", "Density": "0.9733 g/cm\u00b3 @ Temp: 20 \u00b0C"}}