{"cas_no": "939-19-5", "cn_name": "3-\u7f9f\u57fa\u9999\u8c46\u7d20", "en_name": ["3-Hydroxycoumarin", "2H-1-Benzopyran-2-one, 3-hydroxy-", "Coumarin, 3-hydroxy-", "3-Hydroxy-2H-1-benzopyran-2-one", "3-Hydroxycoumarin", "3-Coumarinol", "NSC 74691", "3-Hydroxy-2H-chromen-2-one", "3-Hydroxychromen-2-one", "3-Hydroxy-cumarin"], "SMILES": "OC1=CC=2C(OC1=O)=CC=CC2", "physical_data": {"Molecular Weight": "162.14", "Molecular Formula": "C9H6O3", "Melting Point": "151 \u00b0C"}}