{"cas_no": "939-83-3", "cn_name": "2-\u7532\u57fa-5-\u785d\u57fa\u82ef\u7532\u8148", "en_name": ["2-Methyl-5-nitrobenzonitrile", "Benzonitrile, 2-methyl-5-nitro-", "o-Tolunitrile, 5-nitro-", "2-Methyl-5-nitrobenzonitrile", "2-Cyano-4-nitrotoluene", "5-Nitro-o-tolunitrile", "6-Methyl-3-nitrobenzonitrile", "5-Nitro-2-methylbenzonitrile", "NSC 507493"], "SMILES": "C(#N)C1=CC(N(=O)=O)=CC=C1C", "physical_data": {"Molecular Weight": "162.15", "Molecular Formula": "C8H6N2O2", "Melting Point": "113-115 \u00b0C"}}