{"cas_no": "939-55-9", "cn_name": "\u82ef\u7532\u9178-2-\u6c2f\u4e59\u916f", "en_name": ["Ethanol, 2-chloro-, 1-benzoate", "Ethanol, 2-chloro-, 1-benzoate", "Ethanol, 2-chloro-, benzoate", "2-Chloroethyl benzoate", "Benzoic acid 2-chloroethyl ester", "\u03b2-Chloroethyl benzoate", "NSC 44612", "Chloroethylbenzoate"], "SMILES": "C(OCCCl)(=O)C1=CC=CC=C1", "physical_data": {"Molecular Weight": "184.62", "Molecular Formula": "C9H9ClO2", "Boiling Point": "256-257 \u00b0C @ Press: 752 Torr", "Melting Point": "129-130 \u00b0C", "Density": "1.1789 g/cm\u00b3 @ Temp: 20 \u00b0C"}}