{"cas_no": "939-90-2", "cn_name": "\u53cd\u5f0f-2-\u82ef\u57fa\u73af\u4e19\u70f7-\u7fa7\u9178", "en_name": ["trans-2-Phenylcyclopropanecarboxylic acid", "Cyclopropanecarboxylic acid, 2-phenyl-, (1R,2R)-rel-", "Cyclopropanecarboxylic acid, 2-phenyl-, trans-", "rel-(1R,2R)-2-Phenylcyclopropanecarboxylic acid", "trans-2-Phenylcyclopropanecarboxylic acid", "trans-2-Phenyl-1-cyclopropanecarboxylic acid", "(\u00b1)-trans-2-Phenyl-1-cyclopropanecarboxylic acid", "NSC 40846", "trans-2-Phenylcyclopropane-1-carboxylic acid"], "SMILES": "C(O)(=O)C1C(C1)C2=CC=CC=C2", "physical_data": {"Molecular Weight": "162.19", "Molecular Formula": "C10H10O2", "Boiling Point": "128 \u00b0C @ Press: 0.18 Torr", "Melting Point": "91 \u00b0C"}}