{"cas_no": "939-79-7", "cn_name": "4-\u7532\u57fa-3-\u785d\u57fa\u82ef\u7532\u8148", "en_name": ["4-Methyl-3-nitrobenzonitrile", "Benzonitrile, 4-methyl-3-nitro-", "p-Tolunitrile, 3-nitro-", "4-Methyl-3-nitrobenzonitrile", "3-Nitro-4-tolunitrile", "3-Nitro-p-tolunitrile", "4-Cyano-2-nitrotoluene", "3-Nitro-4-methylbenzonitrile"], "SMILES": "N(=O)(=O)C1=CC(C#N)=CC=C1C", "physical_data": {"Molecular Weight": "162.15", "Molecular Formula": "C8H6N2O2", "Melting Point": "96-98 \u00b0C"}}