{"cas_no": "939-27-5", "cn_name": "2-\u4e59\u57fa\u8418", "en_name": ["2-Ethylnaphthalene", "Naphthalene, 2-ethyl-", "2-Ethylnaphthalene", "\u03b2-Ethylnaphthalene", "3-Ethylnaphthalene", "NSC 59389"], "SMILES": "C(C)C1=CC2=C(C=C1)C=CC=C2", "physical_data": {"Molecular Weight": "156.22", "Molecular Formula": "C12H12", "Boiling Point": "258 \u00b0C", "Melting Point": "-7.4 \u00b0C", "Density": "1.0069 g/cm\u00b3 @ Temp: 0 \u00b0C"}}