{"cas_no": "93917-68-1", "cn_name": "(2-\u7532\u57fa\u82ef\u6c27\u57fa)\u918b\u9178\u4e59\u916f", "en_name": ["Ethyl 2-(2-methylphenoxy)acetate", "Acetic acid, 2-(2-methylphenoxy)-, ethyl ester", "Acetic acid, (2-methylphenoxy)-, ethyl ester", "Acetic acid, o-tolyloxy-, ethyl ester", "Ethyl 2-(2-methylphenoxy)acetate", "Ethyl (2-methylphenoxy)acetate", "(2-Methylphenoxy)acetic acid ethyl ester", "Ethyl 2-(o-tolyloxy)acetate"], "SMILES": "O(CC(OCC)=O)C1=C(C)C=CC=C1", "physical_data": {"Molecular Weight": "194.23", "Molecular Formula": "C11H14O3", "Boiling Point": "258-260 \u00b0C"}}