{"cas_no": "93957-49-4", "cn_name": "3-(4-\u6c1f\u82ef\u57fa)-1-\u5f02\u4e19\u57fa-1H-\u5432\u54da", "en_name": ["3-(4-Fluorophenyl)-1-(1-methylethyl)-1H-indole", "1H-Indole, 3-(4-fluorophenyl)-1-(1-methylethyl)-", "3-(4-Fluorophenyl)-1-(1-methylethyl)-1H-indole", "1-Isopropyl-3-(4-fluorophenyl)indole", "3-(4-Fluorophenyl)-1-isopropyl-1H-indole"], "SMILES": "C(C)(C)N1C=C(C=2C1=CC=CC2)C3=CC=C(F)C=C3", "physical_data": {"Molecular Weight": "253.31", "Molecular Formula": "C17H16FN", "Melting Point": "94-95 \u00b0C"}}