{"cas_no": "93957-54-1", "cn_name": "\u6c1f\u4f10\u4ed6\u6c40", "en_name": ["Fluvastatin", "6-Heptenoic acid, 7-[3-(4-fluorophenyl)-1-(1-methylethyl)-1H-indol-2-yl]-3,5-dihydroxy-, (3R,5S,6E)-rel-", "6-Heptenoic acid, 7-[3-(4-fluorophenyl)-1-(1-methylethyl)-1H-indol-2-yl]-3,5-dihydroxy-, [R*,S*-(E)]-(\u00b1)-", "rel-(3R,5S,6E)-7-[3-(4-Fluorophenyl)-1-(1-methylethyl)-1H-indol-2-yl]-3,5-dihydroxy-6-heptenoic acid", "Fluvastatin", "6-Heptenoic acid, 7-[3-(4-fluorophenyl)-1-(1-methylethyl)-1H-indol-2-yl]-3,5-dihydroxy-, [R*,S*-(E)]-", "Leschol", "Fluvastatin XL", "NSC 758896"], "SMILES": "C(=CC(CC(CC(O)=O)O)O)C1=C(C=2C(N1C(C)C)=CC=CC2)C3=CC=C(F)C=C3", "physical_data": {"Molecular Weight": "411.47", "Molecular Formula": "C24H26FNO4", "Melting Point": "193.9-196.9 \u00b0C"}}