{"cas_no": "93957-55-2", "cn_name": "\u6c1f\u4f10\u4ed6\u6c40\u94a0", "en_name": ["Fluvastatin sodium", "6-Heptenoic acid, 7-[3-(4-fluorophenyl)-1-(1-methylethyl)-1H-indol-2-yl]-3,5-dihydroxy-, sodium salt (1:1), (3R,5S,6E)-rel-", "6-Heptenoic acid, 7-[3-(4-fluorophenyl)-1-(1-methylethyl)-1H-indol-2-yl]-3,5-dihydroxy-, monosodium salt, [R*,S*-(E)]-(\u00b1)-", "6-Heptenoic acid, 7-[3-(4-fluorophenyl)-1-(1-methylethyl)-1H-indol-2-yl]-3,5-dihydroxy-, monosodium salt, (3R,5S,6E)-rel-", "XU 62-320", "Fluindostatin", "Fluvastatin sodium", "Lescol", "Locol", "Vastin", "Cranoc", "Fractal", "Canef", "Lescol XL", "(3R,5S,6E)-rel-7-[3-(4-Fluorophenyl)-1-(1-methylethyl)-1H-indol-2-yl]-3,5-dihydroxy-6-heptenoic acid monosodium salt", "Lochol", "Almastatin"], "SMILES": "C(=CC(CC(CC(O)=O)O)O)C1=C(C=2C(N1C(C)C)=CC=CC2)C3=CC=C(F)C=C3.[Na]", "physical_data": {"Molecular Weight": "", "Molecular Formula": "C24H26FNO4.Na", "Melting Point": "194-197 \u00b0C"}}