{"cas_no": "93963-24-7", "cn_name": "\u4e59\u57fa[1-(4-\u7532\u6c27\u57fa\u82ef\u57fa)\u4e19-2-\u57fa]\u80fa\u76d0\u9178\u76d0", "en_name": ["Benzeneethanamine, N-ethyl-4-methoxy-\u03b1-methyl-, hydrochloride (1:1)", "Benzeneethanamine, N-ethyl-4-methoxy-\u03b1-methyl-, hydrochloride (1:1)", "Benzeneethanamine, N-ethyl-4-methoxy-\u03b1-methyl-, hydrochloride"], "SMILES": "C(C(NCC)C)C1=CC=C(OC)C=C1.Cl", "physical_data": {"Molecular Weight": "", "Molecular Formula": "C12H19NO.ClH", "Melting Point": "156-157 \u00b0C"}}