{"cas_no": "93982-96-8", "cn_name": "\u4e8c\u82ef\u80cd\u6c22\u6eb4\u9178\u76d0", "en_name": ["N,N\u2032-Diphenylguanidine hydrobromide", "Guanidine, N,N\u2032-diphenyl-, hydrobromide (1:1)", "Guanidine, N,N\u2032-diphenyl-, monohydrobromide", "N,N\u2032-Diphenylguanidine hydrobromide"], "SMILES": "N(C(NC1=CC=CC=C1)=N)C2=CC=CC=C2.Br", "physical_data": {"Molecular Weight": "", "Molecular Formula": "C13H13N3.BrH", "Melting Point": "158-160 \u00b0C"}}