{"cas_no": "94-09-7", "cn_name": "\u82ef\u4f50\u5361\u56e0", "en_name": ["Benzocaine", "Benzoic acid, 4-amino-, ethyl ester", "Benzoic acid, p-amino-, ethyl ester", "p-Aminobenzoic acid ethyl ester", "Anaesthesin", "Anesthesin", "Anesthesine", "Anesthone", "Benzocaine", "Ethyl p-aminobenzoate", "Ethyl 4-aminobenzoate", "Keloform", "Norcain", "Norcaine", "Orthesin", "Parathesin", "p-Ethoxycarboxylic aniline", "Amben ethyl ester", "Ethyl p-aminophenylcarboxylate", "p-Carbethoxyaniline", "4-Aminobenzoic acid ethyl ester", "4-Carbethoxyaniline", "p-(Ethoxycarbonyl)aniline", "Ethyl aminobenzoate", "4-(Ethoxycarbonyl)aniline", "Anestezin", "Parathesine", "Identhesin", "Anaesthan-syngala", "Solu H", "Ora-jel", "Anaesthin", "Ethoform", "Ethyl p-aminobenzenecarboxylate", "(p-(Ethoxycarbonyl)phenylamine", "4-(Ethoxycarbonyl)phenylamine", "Slim Mint Gum", "Diet Ayds", "Americaine", "Orabase-B", "Baby Anbesol", "Aethoform", "NSC 41531", "NSC 4688", "Benzoak", "Gingicaine", "Anbesol", "Et-PABA", "MeSH ID: D001566"], "SMILES": "C(OCC)(=O)C1=CC=C(N)C=C1", "physical_data": {"Molecular Weight": "165.19", "Molecular Formula": "C9H11NO2", "Boiling Point": "310 \u00b0C", "Melting Point": "92 \u00b0C"}}