{"cas_no": "94-01-9", "cn_name": "\u95f4\u4e9a\u82ef\u57fa\u4e8c\u82ef\u7532\u9178\u916f", "en_name": ["1,3-Benzenediol, 1,3-dibenzoate", "1,3-Benzenediol, 1,3-dibenzoate", "Resorcinol, dibenzoate", "1,3-Benzenediol, dibenzoate", "1,3-Bis(benzoyloxy)benzene", "1,3-Dibenzoyloxybenzene", "NSC 33405", "NSC 4906", "1,3-Phenylene dibenzoate"], "SMILES": "C(OC1=CC(OC(=O)C2=CC=CC=C2)=CC=C1)(=O)C3=CC=CC=C3", "physical_data": {"Molecular Weight": "318.32", "Molecular Formula": "C20H14O4", "Melting Point": "117 \u00b0C"}}