{"cas_no": "94-05-3", "cn_name": "\u4e59\u6c27\u7532\u53c9\u6c30\u4e59\u9178\u4e59\u916f", "en_name": ["Ethyl (ethoxymethylene)cyanoacetate", "2-Propenoic acid, 2-cyano-3-ethoxy-, ethyl ester", "Acrylic acid, 2-cyano-3-ethoxy-, ethyl ester", "Ethyl 2-cyano-3-ethoxyacrylate", "Ethyl 2-cyano-3-ethoxy-2-propenoate", "Ethyl (ethoxymethylene)cyanoacetate", "Ethyl 3-ethoxy-2-cyanoacrylate", "Ethyl \u03b1-(ethoxymethylene)-\u03b1-cyanoacetate", "Ethyl cyano(ethoxymethylene)acetate", "Ethyl 2-cyano-3-ethoxypropenoate", "2-Cyano-3-ethoxy-2-propenoic acid ethyl ester", "Ethyl 2-(ethoxymethylene)-2-cyanoacetate", "Ethyl cyano(ethoxymethylidene)acetate", "NSC 27797", "NSC 31579", "NSC 62026", "2-(Ethoxymethylene)-2-cyanoacetic acid ethyl ester", "2-Cyano-3-ethoxyacrylic acid ethyl ester", "Ethyl 2-cyano-3-(ethyloxy)-2-propenoate", "Ethyl 2-cyano-2-(ethoxymethylene)acetate", "Ethyl 2-ethoxymethylidenecyanoacetate"], "SMILES": "C(C(OCC)=O)(=COCC)C#N", "physical_data": {"Molecular Weight": "169.18", "Molecular Formula": "C8H11NO3", "Boiling Point": "150-155 \u00b0C @ Press: 5 Torr", "Melting Point": "49-50 \u00b0C"}}