{"cas_no": "94-04-2", "cn_name": "2-\u4e59\u57fa\u5df1\u9178\u4e59\u70ef\u916f", "en_name": ["Vinyl 2-ethylhexanoate", "Hexanoic acid, 2-ethyl-, ethenyl ester", "Hexanoic acid, 2-ethyl-, vinyl ester", "2-Ethylhexanoic acid, vinyl ester", "Vinyl 2-ethylhexoate", "Vinyl 2-ethylhexanoate", "Vynate 2EH", "NSC 5312", "VeoVa EH"], "SMILES": "C(C(OC=C)=O)(CCCC)CC", "physical_data": {"Molecular Weight": "170.25", "Molecular Formula": "C10H18O2", "Boiling Point": "65 \u00b0C @ Press: 15 Torr"}}