{"cas_no": "94-02-0", "cn_name": "\u82ef\u7532\u9170\u4e59\u9178\u4e59\u916f", "en_name": ["Ethyl benzoylacetate", "Benzenepropanoic acid, \u03b2-oxo-, ethyl ester", "Acetic acid, benzoyl-, ethyl ester", "Benzoylacetic acid ethyl ester", "Ethyl benzoylacetate", "Ethyl \u03b2-oxobenzenepropanoate", "1-Ethoxy-3-phenylpropane-1,3-dione", "Ethyl 3-oxo-3-phenylpropanoate", "Ethyl 3-oxo-3-phenylpropionate", "\u03b2-Oxobenzenepropanoic acid ethyl ester", "3-Oxo-3-phenylpropionic acid ethyl ester", "NSC 227214", "NSC 6774", "3-Oxo-3-phenylpropanoic acid ethyl ester", "Ethyl 2-benzoylacetate", "Ethyl 3-phenyl-3-oxopropanoate", "3-Phenyl-3-oxopropanoic acid ethyl ester"], "SMILES": "C(CC(OCC)=O)(=O)C1=CC=CC=C1", "physical_data": {"Molecular Weight": "192.21", "Molecular Formula": "C11H12O3", "Boiling Point": "135-137 \u00b0C @ Press: 18 Torr", "Melting Point": "&lt;0 \u00b0C", "Density": "0.9678 g/cm\u00b3 @ Temp: 15 \u00b0C"}}