{"cas_no": "94-08-6", "cn_name": "\u5bf9\u7532\u57fa\u82ef\u7532\u9178\u4e59\u916f", "en_name": ["Ethyl 4-methylbenzoate", "Benzoic acid, 4-methyl-, ethyl ester", "p-Toluic acid, ethyl ester", "Ethyl p-toluate", "Ethyl p-methylbenzoate", "Ethyl 4-methylbenzoate", "4-Methylbenzoic acid ethyl ester", "NSC 24767", "4-Methyl-1-benzoic acid ethyl ester"], "SMILES": "C(OCC)(=O)C1=CC=C(C)C=C1", "physical_data": {"Molecular Weight": "164.20", "Molecular Formula": "C10H12O2", "Boiling Point": "232 \u00b0C", "Melting Point": "131 \u00b0C", "Density": "1.025 g/cm\u00b3 @ Temp: 20 \u00b0C"}}