{"cas_no": "94-13-3", "cn_name": "\u5c3c\u6cca\u91d1\u4e19\u916f", "en_name": ["Propylparaben", "Benzoic acid, 4-hydroxy-, propyl ester", "Benzoic acid, p-hydroxy-, propyl ester", "Aseptoform P", "Bonomold OP", "p-Hydroxybenzoic acid propyl ester", "Nipasol", "Paseptol", "Preserval P", "Propyl Chemosept", "Nipasol M", "Propylparaben", "Propylparasept", "Tegosept P", "n-Propyl 4-hydroxybenzoate", "Propyl 4-hydroxybenzoate", "Pulvis conservans", "p-Hydroxybenzoic propyl ester", "4-Hydroxybenzoic acid propyl ester", "Chemocide PK", "Propagin", "Propyl Butex", "Solbrol P", "Nipazol", "Nipagin P", "Nipasol P", "Propyl p-hydroxybenzoate", "n-Propylparaben", "Mekkings P", "NSC 23515", "NSC 8511", "propyl p-oxybenzoate", "Paraben P", "Tegasept P", "Paratexin P", "Trisept P"], "SMILES": "C(OCCC)(=O)C1=CC=C(O)C=C1", "physical_data": {"Molecular Weight": "180.20", "Molecular Formula": "C10H12O3", "Boiling Point": "294 \u00b0C", "Melting Point": "96-97 \u00b0C", "Density": "1.0630 g/cm\u00b3 @ Temp: 102 \u00b0C"}}