{"cas_no": "94-11-1", "cn_name": "2,4-\u4e8c\u6c2f\u82ef\u6c27\u4e59\u9178\u5f02\u4e19\u916f", "en_name": ["2,4-D isopropyl ester", "Acetic acid, 2-(2,4-dichlorophenoxy)-, 1-methylethyl ester", "Acetic acid, (2,4-dichlorophenoxy)-, isopropyl ester", "Acetic acid, (2,4-dichlorophenoxy)-, 1-methylethyl ester", "Isopropyl (2,4-dichlorophenoxy)acetate", "Isopropyl 2,4-D ester", "2,4-D isopropyl ester", "Weedone 128", "2,4-Dichlorophenoxyacetic acid isopropyl ester", "Esteron 44", "NSC 521749"], "SMILES": "O(CC(OC(C)C)=O)C1=C(Cl)C=C(Cl)C=C1", "physical_data": {"Molecular Weight": "263.12", "Molecular Formula": "C11H12Cl2O3", "Boiling Point": "30 \u00b0C @ Press: 1 Torr", "Melting Point": "5 \u00b0C", "Density": "1.255-1.270 g/cm\u00b3 @ Temp: 25 \u00b0C"}}