{"cas_no": "94-18-8", "cn_name": "4-\u7f9f\u57fa\u82ef\u7532\u9178\u82c4\u916f", "en_name": ["Benzyl 4-hydroxybenzoate", "Benzoic acid, 4-hydroxy-, phenylmethyl ester", "Benzoic acid, p-hydroxy-, benzyl ester", "Benzylparaben", "Benzyl Parasept", "Benzyl Tegosept", "p-Hydroxybenzoic acid benzyl ester", "Nipabenzyl", "Parosept", "Solbrol Z", "Benzyl 4-hydroxybenzoate", "Benzyl p-hydroxybenzoate", "4-(Benzyloxycarbonyl)phenol", "POB-BZ", "4-Hydroxybenzoic acid benzyl ester", "NSC 8080", "4-Hydroxybenzoic acid, phenylmethyl ester", "Benzyl 4-hydroxylbenzoate"], "SMILES": "C(OCC1=CC=CC=C1)(=O)C2=CC=C(O)C=C2", "physical_data": {"Molecular Weight": "228.24", "Molecular Formula": "C14H12O3", "Melting Point": "111 \u00b0C"}}