{"cas_no": "94-17-7", "cn_name": "\u8fc7\u6c27\u5316\u5bf9\u6c2f\u82ef\u7532\u9170", "en_name": ["p-Chlorobenzoyl peroxide", "Peroxide, bis(4-chlorobenzoyl)", "Peroxide, bis(p-chlorobenzoyl)", "Bis(4-chlorobenzoyl) peroxide", "Bis(p-chlorobenzoyl) peroxide", "p-Chlorobenzoyl peroxide", "p,p\u2032-Dichlorobenzoyl peroxide", "4-Chlorobenzoyl peroxide", "p,p\u2032-Dichlorodibenzoyl peroxide", "Cadox PS", "Di(p-chlorobenzoyl) peroxide", "4,4\u2032-Dichlorobenzoyl peroxide"], "SMILES": "C(OOC(=O)C1=CC=C(Cl)C=C1)(=O)C2=CC=C(Cl)C=C2", "physical_data": {"Molecular Weight": "311.12", "Molecular Formula": "C14H8Cl2O4", "Melting Point": "137-138 \u00b0C"}}