{"cas_no": "94-14-4", "cn_name": "4-\u6c28\u57fa\u82ef\u7532\u9178\u5f02\u4e01\u916f", "en_name": ["Isobutyl p-aminobenzoate", "Benzoic acid, 4-amino-, 2-methylpropyl ester", "Cycloform", "Benzoic acid, p-amino-, isobutyl ester", "Isobutyl p-aminobenzoate", "Isobutyl Keloform", "Isocaine", "Isobutyl p-aminobenzoate", "Isobutyl 4-aminobenzoate", "Isobutylcaine", "Benzamelid", "Cicloforme", "Cyclocaine", "Cyclogesin", "Isobutamben", "Isobutyl p-aminobenzobenzoate", "NSC 23517", "Isobutambene", "2-Methylpropyl 4-aminobenzoate"], "SMILES": "C(OCC(C)C)(=O)C1=CC=C(N)C=C1", "physical_data": {"Molecular Weight": "193.24", "Molecular Formula": "C11H15NO2", "Melting Point": "64.5 \u00b0C"}}