{"cas_no": "94-12-2", "cn_name": "\u5bf9\u6c28\u57fa\u82ef\u7532\u9178\u5f02\u4e19\u916f", "en_name": ["Risocaine", "Benzoic acid, 4-amino-, propyl ester", "Benzoic acid, p-amino-, propyl ester", "Propesin", "p-Aminobenzoic acid, propyl ester", "Keloform P", "Propaesin", "Propesine", "Propyl p-aminobenzoate", "Risocaine", "4-(Propoxycarbonyl)aniline", "Propazyl", "Propylcain", "Raythesin", "n-Propyl p-aminobenzoate", "Propyl 4-aminobenzoate", "NSC 23516"], "SMILES": "C(OCCC)(=O)C1=CC=C(N)C=C1", "physical_data": {"Molecular Weight": "179.22", "Molecular Formula": "C10H13NO2", "Boiling Point": "206-208 \u00b0C @ Press: 2 Torr", "Melting Point": "75 \u00b0C"}}