{"cas_no": "94-21-3", "cn_name": "4-(N-\u7532\u57fa-N-\u6c30\u4e59\u57fa)\u6c28\u57fa\u82ef\u7532\u919b", "en_name": ["3-[(4-Formylphenyl)methylamino]propanenitrile", "Propanenitrile, 3-[(4-formylphenyl)methylamino]-", "Propionitrile, 3-(p-formyl-N-methylanilino)-", "Benzaldehyde, p-[(2-cyanoethyl)methylamino]-", "3-[(4-Formylphenyl)methylamino]propanenitrile", "4-[(2-Cyanoethyl)methylamino]benzaldehyde", "4-(N-Methyl-N-(2-cyanoethyl)amino)benzaldehyde", "N-Methyl-N-(2-cyanoethyl)-4-aminobenzaldehyde", "4-(N-Methyl-N-(cyanoethyl)amino)benzaldehyde", "4-Cyanoethylmethylaminobenzaldehyde"], "SMILES": "N(CCC#N)(C)C1=CC=C(C=O)C=C1", "physical_data": {"Molecular Weight": "188.23", "Molecular Formula": "C11H12N2O", "Melting Point": "68-71 \u00b0C"}}