{"cas_no": "94-24-6", "cn_name": "\u4e01\u5361\u56e0", "en_name": ["Amethocaine", "Benzoic acid, 4-(butylamino)-, 2-(dimethylamino)ethyl ester", "Benzoic acid, p-(butylamino)-, 2-(dimethylamino)ethyl ester", "Anetain", "Contralgin", "2-Dimethylaminoethyl p-butylaminobenzoate", "Fissucain", "Intercain", "Laudocaine", "Medicaine", "Meethobalm", "Metraspray", "Mucaesthin", "Rexocaine", "Uromucaesthin", "Amethocaine", "Butylocaine", "Tetracaine", "\u03b2-Dimethylaminoethyl p-butylaminobenzoate", "\u03b2-Dimethylaminoethyl p-N-butylaminobenzoate", "Pontocaine", "Ametop", "Medihaler-Tetracaine", "2-(Dimethylamino)ethyl 4-(butylamino)benzoate", "MeSH ID: D013748"], "SMILES": "C(OCCN(C)C)(=O)C1=CC=C(NCCCC)C=C1", "physical_data": {"Molecular Weight": "264.36", "Molecular Formula": "C15H24N2O2", "Boiling Point": "220-224 \u00b0C @ Press: 3-4 Torr", "Melting Point": "130 \u00b0C"}}