{"cas_no": "94-26-8", "cn_name": "\u5c3c\u6cca\u91d1\u4e01\u916f", "en_name": ["Butylparaben", "Benzoic acid, 4-hydroxy-, butyl ester", "Benzoic acid, p-hydroxy-, butyl ester", "Aseptoform Butyl", "Butoben", "Butyl chemosept", "Butyl p-hydroxybenzoate", "Butylparaben", "Butyl Tegosept", "p-Hydroxybenzoic acid butyl ester", "Nipabutyl", "Preserval B", "Solbrol B", "Tegosept B", "n-Butyl p-hydroxybenzoate", "Butyl 4-hydroxybenzoate", "SPF", "4-Hydroxybenzoic acid butyl ester", "Butyl parasept", "Tegosept Butyl", "Butyl Butex", "4-(Butoxycarbonyl)phenol", "n-Butylparaben", "n-Butyl 4-hydroxybenzoate", "Mekkings B", "Butyl parabens", "NSC 13164", "NSC 8475", "Mekkins B"], "SMILES": "C(OCCCC)(=O)C1=CC=C(O)C=C1", "physical_data": {"Molecular Weight": "194.23", "Molecular Formula": "C11H14O3", "Boiling Point": "309 \u00b0C", "Melting Point": "68-69 \u00b0C"}}