{"cas_no": "94-28-0", "cn_name": "\u4e09\u4e59\u4e8c\u9187\u4e8c\u5f02\u8f9b\u9178\u916f", "en_name": ["Eastman TEG-EH", "Hexanoic acid, 2-ethyl-, 1,1\u2032-[1,2-ethanediylbis(oxy-2,1-ethanediyl)] ester", "Hexanoic acid, 2-ethyl-, diester with triethylene glycol", "Hexanoic acid, 2-ethyl-, 1,2-ethanediylbis(oxy-2,1-ethanediyl) ester", "Triethylene glycol, bis(2-ethylhexanoate)", "Triethylene glycol di-2-ethylhexoate", "Flexol 3GO", "Triethylene glycol di(2-ethylhexanoate)", "3GO", "Triethylene glycol bis(ethylhexanoate)", "S 2075", "TegMeR 803", "3G8", "Triethylene glycol 2-ethylhexanoic acid diester (1:2)", "Solusolv 2075", "WVC 3800", "Triethylene glycol diisooctanoate", "Oxsoft 3G8", "Eastman TEG-EH", "TEG-EH", "3GEH", "Proviplast 1783", "Plasticizer 3GO", "1,2-Bis-[2-(2-ethyl-hexanoyloxy)-ethoxy]-ethane", "G 260 (plasticizer)", "G 260"], "SMILES": "C(C(OCCOCCOCCOC(C(CCCC)CC)=O)=O)(CCCC)CC", "physical_data": {"Molecular Weight": "402.57", "Molecular Formula": "C22H42O6", "Boiling Point": "200-210 \u00b0C @ Press: 0.5 Torr"}}