{"cas_no": "94-25-7", "cn_name": "4-\u6c28\u57fa\u82ef\u7532\u9178\u4e01\u916f", "en_name": ["Butyl 4-aminobenzoate", "Benzoic acid, 4-amino-, butyl ester", "Benzoic acid, p-amino-, butyl ester", "Butamben", "Butesin", "Butoform", "Butyl Keloform", "Planoform", "Scuroform", "Scuroforme", "Butyl p-aminobenzoate", "Butyl 4-aminobenzoate", "n-Butyl p-aminobenzoate", "p-Aminobenzoic acid butyl ester", "4-(Butoxycarbonyl)aniline", "Butylcaine", "Butesine", "p-Aminobenzoic acid n-butyl ester", "n-Butyl 4-aminobenzoate", "Butsein", "NSC 128464", "Butambene", "4-Aminobenzoic acid butyl ester", "Hemoride"], "SMILES": "C(OCCCC)(=O)C1=CC=C(N)C=C1", "physical_data": {"Molecular Weight": "193.24", "Molecular Formula": "C11H15NO2", "Boiling Point": "173-174 \u00b0C @ Press: 8 Torr", "Melting Point": "58 \u00b0C"}}