{"cas_no": "94-20-2", "cn_name": "\u6c2f\u78fa\u4e19\u8132", "en_name": ["Chlorpropamide", "Benzenesulfonamide, 4-chloro-N-[(propylamino)carbonyl]-", "Urea, 1-[(p-chlorophenyl)sulfonyl]-3-propyl-", "4-Chloro-N-[(propylamino)carbonyl]benzenesulfonamide", "P 607", "Catanil", "N-(p-Chlorobenzenesulfonyl)-N\u2032-propylurea", "1-(p-Chlorobenzenesulfonyl)-3-propylurea", "1-(p-Chlorophenylsulfonyl)-3-propylurea", "Chloropropamide", "Chlorpropamide", "Diabenese", "Diabinese", "N-Propyl-N\u2032-(p-chlorobenzenesulfonyl)urea", "1-Propyl-3-(p-chlorobenzenesulfonyl)urea", "N-Propyl-N\u2032-p-chlorphenylsulfonylcarbamide", "N-(4-Chlorophenylsulfonyl)-N\u2032-propylurea", "Chlorpropamid", "Diabeneza", "Diabaril", "U 9818", "Glisema", "Chloronase", "Meldian", "Chlorodiabina", "Diabetoral", "Diabet-Pages", "Diabenal", "Melitase", "Adiaben", "Diabechlor", "Millinese", "Asucrol", "Stabinol", "NSC 44634", "NSC 626720", "Pamidin", "1-(4-Chlorophenyl)sulfonyl-3-propyl-urea", "1-(4-Chlorophenyl)sulfonyl-3-propylurea", "1-(4-Chloro-benzenesulfonyl)-3-n-propyl-urea", "4-Chloro-N-(propylcarbamoyl)benzenesulfonamide", "MeSH ID: D002747"], "SMILES": "S(NC(NCCC)=O)(=O)(=O)C1=CC=C(Cl)C=C1", "physical_data": {"Molecular Weight": "276.74", "Molecular Formula": "C10H13ClN2O3S", "Melting Point": "127-129 \u00b0C"}}