{"cas_no": "94-34-8", "cn_name": "N-\u7532\u57fa-N-\u6c30\u4e59\u57fa\u82ef\u80fa", "en_name": ["N-(2-Cyanoethyl)-N-methylaniline", "Propanenitrile, 3-(methylphenylamino)-", "Propionitrile, 3-(N-methylanilino)-", "3-(Methylphenylamino)propanenitrile", "N-\u03b2-Cyanoethyl-N-methylaniline", "\u03b2-(N-Methylanilino)propionitrile", "N-Methyl-N-(2-cyanoethyl)aniline", "N-(2-Cyanoethyl)-N-methylaniline", "NSC 73689", "NSC 91616"], "SMILES": "N(CCC#N)(C)C1=CC=CC=C1", "physical_data": {"Molecular Weight": "160.22", "Molecular Formula": "C10H12N2", "Boiling Point": "186 \u00b0C @ Press: 23 Torr"}}