{"cas_no": "94-36-0", "cn_name": "\u8fc7\u6c27\u5316\u4e8c\u82ef\u7532\u9170", "en_name": ["Benzoyl peroxide", "Peroxide, dibenzoyl", "Benzoyl peroxide", "Dibenzoyl peroxide", "Benzoyl superoxide", "Lucidol", "Oxylite", "Benzoperoxide", "Lucidol B 50", "Benoxyl", "Persadox", "Lucidol G 20", "G 20", "Nyper BO", "Diphenylglyoxal peroxide", "Luperco AST", "Panoxyl", "Lucidol 50P", "Lucidol KL 50", "Lucidol CH 50", "Lucidol 98", "Cadox 40E", "Lucidol S 50", "Superox 744", "Lucidol 40E", "Nyper B", "Luperco AA", "Cadox B 50P", "Nyper BS", "BPO", "Benbel C", "Cadox B-CH 50", "Nyper FF", "Cadet BPO", "TC 1 (peroxide)", "TC 1", "Cadox B 75W", "Nyper BMT 40", "Lucidol 70", "Lucidol 78", "Superox 46-750", "Cadet BPO 78W", "Abcat 40", "Lucidol BW 50T", "Nyper BMT", "Nyper NS", "Lucidol 75FP", "Sanperox BPO", "W 75", "Lucidol W 40", "Nyper BW", "Nyper FF-K", "Chaloxyd BP 50FT", "Lucidol BT 50", "Lucidol 75W", "Lucidol CH 50X", "Lucidol (peroxide)", "B 75W", "Luperox A 75", "Cadox B 40E", "Cadox B", "Benzashave", "Desquam E", "Desquam X", "Triaz", "W 75 (peroxide)", "Solugel", "Aksil 5", "Lucidol CH 50L", "Peroxan BP 50SE", "Varox ANS", "Benox 50", "Solugel (peroxide)", "Nyper F", "Luperox ACP 35", "Benzaknen", "Xerac BP 5", "Debroxide", "Xerac BP 10", "Brevoxyl", "Preoxydex", "Acetoxyl", "Clear By Design", "Peroxyderm", "Loroxide", "Benzagel 10", "Vanoxide", "Desanden", "Sanoxit", "Oxy-L", "Benzac W", "Nericur", "Benzac", "Akneroxide L", "PHisoAc BP", "Persa-Gel", "Acnegel", "Acne-Aid Cream", "Dry and Clear", "Theraderm", "Benzagel", "Oxy-5", "Epi-Clear", "NSC 671", "NSC 675", "Link-Cup DBP", "Perkadox L-W 75", "Perkadox L-W 40TCP", "Lucidol 75", "Interox GZ-S", "Interox BP 50P1", "Fivenox B 50G", "Nyper BO-Y", "Perkadox L 50S-PS", "Luperco ANS", "Oxycare 42", "Perkadox CH 50", "CH 50", "Perkadox CH 50L", "Perkadox 20S", "BPO 50", "Cadox B 40ES", "PEROX-B 75", "CH 50L", "Nyper BMT 40SV", "Luperox AFR 40", "Acnezoyl", "BP 50FT", "Luperox 98", "Benox A 80", "Perkadox PM 50S", "Luperox A 98", "Nyper BD", "Basiron", "C 1A (peroxide)", "C 1A", "Perkadox L-W 40", "Luperox A 70S", "Luperox 78", "Aztec BP 50FT", "PEROX-B 95", "Degament H", "Perkadox L 50S", "SikaFast 5200B", "Luperox A 75FP", "Peroxan BP Powder 50W", "Perkadox BTW 50", "Luperox A 40FP-EZ9", "Perkadox L-DFG", "BP", "Luperox ANS 50G", "Perkadox L 40RPS", "Perkadox BT 50", "Luprox A 75C", "Nyper BMT-K", "Niper BMT", "Perkadox CH 50X", "Perkadox 33", "Peroxan BP 50PF1", "Luperox ATC 50", "617P37", "Retic BP 50", "Peroxan BP 40LV", "Peroxan BP 50 Red", "Niper BW", "Peroxan BP 50PF", "BM 50R", "Perkadox 40", "Perkadox GB 50X", "Epsolay", "Perkadox GB 50L", "Luperox APF 55", "B 802244", "Peroxan BP 50", "Peroxan BP 40WS", "B 83771", "BP 50FT1", "Perkadox L 40ES", "MeSH ID: D001585", "Peroxan BP paste 50PF1"], "SMILES": "C(OOC(=O)C1=CC=CC=C1)(=O)C2=CC=CC=C2", "physical_data": {"Molecular Weight": "242.23", "Molecular Formula": "C14H10O4", "Melting Point": "103-106 \u00b0C", "Density": "1.334 g/cm\u00b3 @ Temp: 25 \u00b0C"}}