{"cas_no": "94-32-6", "cn_name": "4-(\u6b63\u4e01\u57fa\u6c28\u57fa)\u82ef\u7532\u9178\u4e59\u916f", "en_name": ["Ethyl 4-(butylamino)benzoate", "Benzoic acid, 4-(butylamino)-, ethyl ester", "Benzoic acid, p-(butylamino)-, ethyl ester", "Ethyl 4-(butylamino)benzoate", "Ethyl p-butylaminobenzoate"], "SMILES": "C(OCC)(=O)C1=CC=C(NCCCC)C=C1", "physical_data": {"Molecular Weight": "221.30", "Molecular Formula": "C13H19NO2", "Melting Point": "68 \u00b0C"}}