{"cas_no": "94-31-5", "cn_name": "N-\u7532\u57fa-N-\u6c2f\u4e59\u57fa-4-\u6c28\u57fa\u82ef\u7532\u919b", "en_name": ["4-[(2-Chloroethyl)methylamino]benzaldehyde", "Benzaldehyde, 4-[(2-chloroethyl)methylamino]-", "Benzaldehyde, p-[(2-chloroethyl)methylamino]-", "4-[(2-Chloroethyl)methylamino]benzaldehyde", "4-(N-2-Chloroethyl-N-methylamino)benzaldehyde", "4-[N-Methyl-N-(\u03b2-chloroethyl)amino]benzaldehyde"], "SMILES": "N(CCCl)(C)C1=CC=C(C=O)C=C1", "physical_data": {"Molecular Weight": "197.66", "Molecular Formula": "C10H12ClNO", "Melting Point": "70 \u00b0C"}}