{"cas_no": "94-37-1", "cn_name": "\u4e8c\u73af\u620a\u4e9a\u7532\u57fa\u4e8c\u786b\u5316\u56db\u70f7\u57fa\u79cb\u5170\u59c6", "en_name": ["Dipentamethylenethiuram disulfide", "Methanethione, 1,1\u2032-dithiobis[1-(1-piperidinyl)-", "Disulfide, bis(piperidinothiocarbonyl)", "Piperidine, 1,1\u2032-(dithiodicarbonothioyl)bis-", "1,1\u2032-Dithiobis[1-(1-piperidinyl)methanethione]", "Bis(pentamethylene)thiuram disulfide", "Bis(piperidinothiocarbonyl) disulfide", "1-Piperidinethiocarbonyl disulfide", "Bis(1-piperidylthiocarbonyl) disulfide", "Dipentamethylenethiuram disulfide", "Disulfide, bis(1-piperidinylthioxomethyl)", "Dicyclopentamethylenethiuram disulfide", "NSC 527035", "Robac PTD", "N,N\u2032-Pentamethylenethiuram disulfide", "NSC 527055", "Bis(piperidinylthiocarbonyl) disulfide", "ANFD 24"], "SMILES": "C(SSC(=S)N1CCCCC1)(=S)N2CCCCC2", "physical_data": {"Molecular Weight": "320.56", "Molecular Formula": "C12H20N2S4", "Melting Point": "120 \u00b0C", "Density": "1.35 g/cm\u00b3"}}