{"cas_no": "94-30-4", "cn_name": "\u5bf9\u7532\u6c27\u57fa\u82ef\u7532\u9178\u4e59\u916f", "en_name": ["Ethyl 4-methoxybenzoate", "Benzoic acid, 4-methoxy-, ethyl ester", "p-Anisic acid, ethyl ester", "Ethyl p-methoxybenzoate", "Ethyl p-anisate", "Ethyl 4-methoxybenzoate", "Ethyl anisate", "Ethyl p-anisoate", "4-Methoxybenzoic acid ethyl ester", "NSC 4160"], "SMILES": "C(OCC)(=O)C1=CC=C(OC)C=C1", "physical_data": {"Molecular Weight": "180.20", "Molecular Formula": "C10H12O3", "Boiling Point": "269.5 \u00b0C", "Melting Point": "7.5 \u00b0C", "Density": "1.106 g/cm\u00b3 @ Temp: 16.5 \u00b0C"}}