{"cas_no": "94-47-3", "cn_name": "\u82ef\u7532\u9178-2-\u82ef\u4e59\u916f", "en_name": ["Phenylethyl benzoate", "Benzoic acid, 2-phenylethyl ester", "Benzoic acid, phenethyl ester", "Phenethyl alcohol, benzoate", "Benzylcarbinyl benzoate", "Phenethyl benzoate", "Phenylethyl benzoate", "\u03b2-Phenylethyl benzoate", "2-Phenylethyl benzoate", "\u03b2-Phenethyl benzoate", "NSC 24096", "Finsolv SUN", "X-Tend 226"], "SMILES": "C(OCCC1=CC=CC=C1)(=O)C2=CC=CC=C2", "physical_data": {"Molecular Weight": "226.27", "Molecular Formula": "C15H14O2", "Boiling Point": "111-115 \u00b0C @ Press: 15 Torr"}}