{"cas_no": "94-44-0", "cn_name": "\u70df\u9178\u82c4\u916f", "en_name": ["Benzyl nicotinate", "3-Pyridinecarboxylic acid, phenylmethyl ester", "Nicotinic acid, benzyl ester", "Benzyl nicotinate", "Benzyl pyridine-3-carboxylate", "Niacin benzyl ester", "Pyridine-3-carboxylic acid benzyl ester", "Rubriment"], "SMILES": "C(OCC1=CC=CC=C1)(=O)C=2C=CC=NC2", "physical_data": {"Molecular Weight": "213.23", "Molecular Formula": "C13H11NO2", "Boiling Point": "170 \u00b0C", "Melting Point": "24 \u00b0C"}}