{"cas_no": "94-46-2", "cn_name": "\u82ef\u7532\u9178\u5f02\u620a\u916f", "en_name": ["Isoamyl benzoate", "1-Butanol, 3-methyl-, 1-benzoate", "Isopentyl alcohol, benzoate", "1-Butanol, 3-methyl-, benzoate", "iso-Amyl benzoate", "Isopentyl benzoate", "Isoamyl benzoate", "3-Methylbutyl benzoate", "iso-Pentyl benzoate", "NSC 9284"], "SMILES": "C(OCCC(C)C)(=O)C1=CC=CC=C1", "physical_data": {"Molecular Weight": "192.25", "Molecular Formula": "C12H16O2", "Boiling Point": "261 \u00b0C"}}