{"cas_no": "94-41-7", "cn_name": "\u67e5\u8033\u916e", "en_name": ["Chalcone", "2-Propen-1-one, 1,3-diphenyl-", "Chalcone", "1,3-Diphenyl-2-propen-1-one", "Benzalacetophenone", "\u03b2-Benzoylstyrene", "Benzylideneacetophenone", "Chalkone", "Cinnamophenone", "3-Phenylacrylophenone", "Phenyl styryl ketone", "\u03b2-Phenylacrylophenone", "2-Benzylideneacetophenone", "1,3-Diphenyl-1-propen-3-one", "Benzylidenecetophenone", "1-Phenyl-2-benzoylethylene", "2-Benzalacetophenone", "\u03b1-Benzylideneacetophenone", "1-Benzoyl-2-phenylethene", "Phenyl 2-phenylvinyl ketone", "1,3-Diphenylpropenone", "Styryl phenyl ketone", "1-Benzoyl-2-phenylethylene", "\u03c9-Benzylideneacetophenone", "1,3-Diphenyl-2-propenone", "1,3-Diphenylpropen-3-one", "BAP", "Phenyl 2-phenylethenyl ketone", "NSC 26612", "NSC 4523", "1,3-Diphenyl-3-oxo-1-propene", "MeSH ID: D002599"], "SMILES": "C(C=CC1=CC=CC=C1)(=O)C2=CC=CC=C2", "physical_data": {"Molecular Weight": "208.26", "Molecular Formula": "C15H12O", "Boiling Point": "346.5 \u00b0C", "Melting Point": "57.5 \u00b0C"}}