{"cas_no": "94-48-4", "cn_name": "(E)-3,7-\u4e8c\u7532\u57fa-2,6-\u8f9b\u4e8c\u70ef-1-\u9187\u82ef\u7532\u9178\u916f", "en_name": ["Geranyl benzoate", "2,6-Octadien-1-ol, 3,7-dimethyl-, 1-benzoate, (2E)-", "2,6-Octadien-1-ol, 3,7-dimethyl-, benzoate, (E)-", "2,6-Octadien-1-ol, 3,7-dimethyl-, benzoate, (2E)-", "Benzoic acid geraniol ester", "trans-3,7-Dimethyl-2,6-octadienyl benzoate", "Geraniol benzoate", "Geranyl benzoate", "3,7-Dimethyl-2,6-octadienyl benzoate", "(E)-3,7-Dimethylocta-2,6-dien-1-yl benzoate"], "SMILES": "C(OCC=C(CCC=C(C)C)C)(=O)C1=CC=CC=C1", "physical_data": {"Molecular Weight": "258.36", "Molecular Formula": "C17H22O2", "Boiling Point": "180-183 \u00b0C @ Press: 8 Torr"}}