{"cas_no": "94-45-1", "cn_name": "2-\u6c28\u57fa-6-\u4e59\u6c27\u57fa\u82ef\u5e76\u567b\u5511", "en_name": ["2-Amino-6-ethoxybenzothiazole", "2-Benzothiazolamine, 6-ethoxy-", "Benzothiazole, 2-amino-6-ethoxy-", "Benzothiazole, 1-amino-5-ethoxy-", "6-Ethoxy-2-benzothiazolamine", "2-Amino-6-ethoxybenzothiazole", "6-Ethoxy-2-aminobenzothiazole", "6-Ethoxy-1,3-benzothiazol-2-ylamine", "NSC 28731", "(6-Ethoxybenzothiazol-2-yl)amine", "6-Ethoxybenzo[d]thiazol-2-amine", "6-Ethoxy-1,3-benzothiazol-2-amine"], "SMILES": "NC1=NC=2C(=CC(OCC)=CC2)S1", "physical_data": {"Molecular Weight": "194.25", "Molecular Formula": "C9H10N2OS", "Melting Point": "161-162 \u00b0C"}}