{"cas_no": "94-49-5", "cn_name": "\u4e8c\u82ef\u7532\u9178\u4e59\u4e8c\u916f", "en_name": ["Glycol dibenzoate", "1,2-Ethanediol, 1,2-dibenzoate", "1,2-Ethanediol, dibenzoate", "Ethylene glycol, dibenzoate", "Benzoflex e-60", "Ethylene dibenzoate", "Glycol dibenzoate", "Dibenzoyl ethylene glycol", "Ethanediol dibenzoate", "NSC 37158", "NSC 61739", "1,2-Ethylene glycol dibenzoate", "2-Benzoyloxyethyl benzoate", "Monocizer PB 10", "PB 10"], "SMILES": "C(OCCOC(=O)C1=CC=CC=C1)(=O)C2=CC=CC=C2", "physical_data": {"Molecular Weight": "270.28", "Molecular Formula": "C16H14O4", "Boiling Point": "184-192 \u00b0C @ Press: 1 Torr", "Melting Point": "73.5 \u00b0C"}}