{"cas_no": "94-59-7", "cn_name": "\u9ec4\u6a1f\u7d20", "en_name": ["Safrole", "1,3-Benzodioxole, 5-(2-propen-1-yl)-", "Benzene, 4-allyl-1,2-(methylenedioxy)-", "1,3-Benzodioxole, 5-(2-propenyl)-", "5-(2-Propen-1-yl)-1,3-benzodioxole", "Allylcatechol methylene ether", "Allyldioxybenzene methylene ether", "1-Allyl-3,4-methylenedioxybenzene", "m-Allylpyrocatechin methylene ether", "Allylpyrocatechol methylene ether", "3,4-Methylenedioxy-allylbenzene", "Safrol", "Safrole MF", "Shikimole", "Shikomol", "Safrole", "5-Allyl-1,3-benzodioxole", "Rhyuno oil", "4-Allyl-1,2-(methylenedioxy)benzene", "3-(3,4-Methylenedioxyphenyl)prop-1-ene", "NSC 11831", "5-(2-Propenyl)-1,3-benzodioxole", "Alda 89", "5-Allylbenzo[d][1,3]dioxole", "MeSH ID: D012451"], "SMILES": "C(C=C)C=1C=C2C(=CC1)OCO2", "physical_data": {"Molecular Weight": "162.19", "Molecular Formula": "C10H10O2", "Boiling Point": "234.5 \u00b0C @ Press: 760 Torr", "Melting Point": "11.2 \u00b0C", "Density": "1.096 g/cm\u00b3 @ Temp: 20 \u00b0C"}}