{"cas_no": "94-52-0", "cn_name": "6-\u785d\u57fa\u82ef\u5e76\u54aa\u5511", "en_name": ["5-Nitrobenzimidazole", "1H-Benzimidazole, 6-nitro-", "Benzimidazole, 5-nitro-", "1H-Benzimidazole, 5-nitro-", "Benzimidazole, 5(or 6)-nitro-", "6-Nitro-1H-benzimidazole", "5-Nitrobenzimidazole", "6-Nitrobenzimidazole", "5(6)-Nitrobenzimidazole", "NSC 3068", "NSC 58858", "5-Nitro-1H-benzimidazole"], "SMILES": "N(=O)(=O)C=1C=C2C(=CC1)N=CN2", "physical_data": {"Molecular Weight": "163.13", "Molecular Formula": "C7H5N3O2", "Melting Point": "203 \u00b0C"}}