{"cas_no": "94-53-1", "cn_name": "\u80e1\u6912\u9178", "en_name": ["1,3-Benzodioxole-5-carboxylic acid", "1,3-Benzodioxole-5-carboxylic acid", "Piperonylic acid", "Heliotropic acid", "3,4-Methylenedioxybenzoic acid", "Protocatechuic acid methylene ether", "5-Benzodioxolecarboxylic acid", "3,4-Dioxymethylenebenzoic acid", "3,4-Methylenedioxybenzenecarboxylic acid", "NSC 10072", "NSC 119055", "Benzo[d][1,3]dioxole-5-carboxylic acid", "1,3-Dioxaindane-5-carboxylic acid", "2H-1,3-Benzodioxole-5-carboxylic acid"], "SMILES": "C(O)(=O)C=1C=C2C(=CC1)OCO2", "physical_data": {"Molecular Weight": "166.13", "Molecular Formula": "C8H6O4", "Boiling Point": "120 \u00b0C @ Press: 1 Torr", "Melting Point": "229 \u00b0C"}}