{"cas_no": "94-50-8", "cn_name": "\u82ef\u7532\u9178\u6b63\u8f9b\u916f", "en_name": ["Octyl benzoate", "Benzoic acid, octyl ester", "n-Octyl benzoate", "Octyl benzoate", "1-Octyl benzoate", "Octyl alcohol, benzoate", "NSC 21846", "Dena PF 681", "Benzoic acid 1-octanyl ester", "Caprylyl benzoate"], "SMILES": "C(OCCCCCCCC)(=O)C1=CC=CC=C1", "physical_data": {"Molecular Weight": "234.33", "Molecular Formula": "C15H22O2", "Boiling Point": "182-183 \u00b0C @ Press: 21 Torr", "Density": "0.9614 g/cm\u00b3 @ Temp: 20 \u00b0C"}}