{"cas_no": "94-63-3", "cn_name": "\u7898\u89e3\u78f7\u5b9a", "en_name": ["Pralidoxime iodide", "Pyridinium, 2-[(hydroxyimino)methyl]-1-methyl-, iodide (1:1)", "2-Formyl-1-methylpyridinium iodide oxime", "Pyridinium, 2-formyl-1-methyl-, iodide, oxime", "Pyridinium, 2-[(hydroxyimino)methyl]-1-methyl-, iodide", "2-PAM", "1-Methyl-2-aldoximinopyridinium iodide", "1-Methyl-2-hydroxyiminomethylpyridinium iodide", "N-Methylpyridinium-2-aldoxime iodide", "PAM", "Pralidoxime iodide", "Protopam iodide", "2-Pyridine aldoxime iodomethylate", "2-Pyridinealdoxime methiodide", "2-Pyridine aldoxymethiodide", "PAM (pharmaceutical)", "2-Hydroxyiminomethyl-1-methylpyridinium iodide", "N-Methylpyridine-2-aldoxime iodide", "Pyridinium-2-aldoxime N-methyliodide", "Pralidoxime methiodide", "2-Pyridine aldoxime methyl iodide", "2-Pyridinecarboxaldehyde aldoxime methiodide", "2-Pyridylaldoxime methiodide", "Pyridine aldoxime methiodide", "2-(Hydroximinomethyl)-1-methylpyridinium iodide", "2-PAM iodide", "2-Pyridinaldoxime methiodide", "Pralidoxime iodomethylate"], "SMILES": "C(=NO)C=1[N+](C)=CC=CC1.[I-]", "physical_data": {"Molecular Weight": "", "Molecular Formula": "C7H9N2O.I", "Melting Point": "225-226 \u00b0C"}}