{"cas_no": "94-60-0", "cn_name": "1,4-\u73af\u5df1\u70f7\u4e8c\u7fa7\u9178\u4e8c\u7532\u916f", "en_name": ["Dimethyl 1,4-cyclohexanedicarboxylate", "1,4-Cyclohexanedicarboxylic acid, 1,4-dimethyl ester", "1,4-Cyclohexanedicarboxylic acid, dimethyl ester", "Dimethyl hexahydroterephthalate", "Dimethyl 1,4-cyclohexanedicarboxylate", "1,4-Cyclohexanedicarboxylic dimethyl ester", "1,4-Dimethyl cyclohexane-1,4-dicarboxylate"], "SMILES": "C(OC)(=O)C1CCC(C(OC)=O)CC1", "physical_data": {"Molecular Weight": "200.23", "Molecular Formula": "C10H16O4", "Boiling Point": "262-263 \u00b0C @ Press: 761 Torr", "Melting Point": "71 \u00b0C", "Density": "1.102 g/cm\u00b3"}}