{"cas_no": "94-68-8", "cn_name": "N-\u4e59\u57fa-2-\u7532\u57fa\u82ef\u80fa", "en_name": ["N-Ethyl-o-toluidine", "Benzenamine, N-ethyl-2-methyl-", "o-Toluidine, N-ethyl-", "N-Ethyl-2-methylbenzenamine", "1-(Ethylamino)-2-methylbenzene", "2-(Ethylamino)toluene", "N-Ethyl-2-methylaniline", "N-Ethyl-o-toluidine", "o-Methyl-N-ethylaniline", "NSC 8888", "N-Ethyl-N-(o-tolyl)amine", "N-Ethyl-o-methylaniline", "2-Methyl-N-ethylaniline"], "SMILES": "N(CC)C1=C(C)C=CC=C1", "physical_data": {"Molecular Weight": "135.21", "Molecular Formula": "C9H13N", "Boiling Point": "216 \u00b0C", "Melting Point": "&lt;-15 \u00b0C"}}