{"cas_no": "94-69-9", "cn_name": "N-\u7532\u9170\u57fa\u90bb\u7532\u82ef\u80fa", "en_name": ["N-(2-Methylphenyl)formamide", "Formamide, N-(2-methylphenyl)-", "o-Formotoluidide", "N-(2-Methylphenyl)formamide", "o-Methylformanilide", "o-Tolylformamide", "o-Methyl-N-formylaniline", "2\u2032-Methylformanilide", "N-o-Tolylformamide", "N-Formyl-o-toluidine", "NSC 406128", "NSC 62002", "N-Formyl-2-methylaniline"], "SMILES": "N(C=O)C1=C(C)C=CC=C1", "physical_data": {"Molecular Weight": "135.16", "Molecular Formula": "C8H9NO", "Boiling Point": "288 \u00b0C", "Melting Point": "62 \u00b0C"}}