{"cas_no": "94-66-6", "cn_name": "2-\u70ef\u4e19\u57fa\u73af\u5df1\u916e", "en_name": ["2-Allylcyclohexanone", "Cyclohexanone, 2-(2-propen-1-yl)-", "Cyclohexanone, 2-allyl-", "Cyclohexanone, 2-(2-propenyl)-", "2-(2-Propen-1-yl)cyclohexanone", "2-Allylcyclohexanone", "NSC 128921", "2-(2-Propenyl)cyclohexanone", "2-Allylcyclohexan-1-one", "2-(Prop-2-en-1-yl)cyclohexan-1-one"], "SMILES": "C(C=C)C1C(=O)CCCC1", "physical_data": {"Molecular Weight": "138.21", "Molecular Formula": "C9H14O", "Boiling Point": "94 \u00b0C @ Press: 16 Torr", "Density": "0.927 g/cm\u00b3 @ Temp: 22 \u00b0C"}}