{"cas_no": "94-65-5", "cn_name": "2-\u4e19\u57fa\u73af\u5df1\u916e", "en_name": ["2-Propylcyclohexanone", "Cyclohexanone, 2-propyl-", "2-Propylcyclohexanone", "NSC 54015", "2-Propylcyclohexan-1-one", "2-(n-Propyl)cyclohexanone"], "SMILES": "C(CC)C1C(=O)CCCC1", "physical_data": {"Molecular Weight": "140.22", "Molecular Formula": "C9H16O", "Boiling Point": "197 \u00b0C", "Melting Point": "134-135 \u00b0C", "Density": "0.9145 g/cm\u00b3 @ Temp: 13 \u00b0C"}}