{"cas_no": "94-62-2", "cn_name": "\u80e1\u6912\u78b1", "en_name": ["Piperine", "2,4-Pentadien-1-one, 5-(1,3-benzodioxol-5-yl)-1-(1-piperidinyl)-, (2E,4E)-", "Piperine", "Piperidine, 1-piperoyl-, (E,E)-", "Piperidine, 1-[5-(1,3-benzodioxol-5-yl)-1-oxo-2,4-pentadienyl]-, (E,E)-", "Piperidine, 1-[(2E,4E)-5-(1,3-benzodioxol-5-yl)-1-oxo-2,4-pentadienyl]-", "(2E,4E)-5-(1,3-Benzodioxol-5-yl)-1-(1-piperidinyl)-2,4-pentadien-1-one", "1-Piperoylpiperidine", "Piperin", "(E,E)-5-(3,4-Methylenedioxyphenyl)-2,4-pentadienoylpiperidide", "(E,E)-1-[5-(1,3-Benzodioxol-5-yl)-2,4-pentadienoyl]piperidine", "Bioperine", "NSC 21727", "Bioperin", "(2E,4E)-5-(Benzo[d][1,3]dioxol-5-yl)-1-(piperidin-1-yl)penta-2,4-dien-1-one"], "SMILES": "C(=CC=CC(=O)N1CCCCC1)C=2C=C3C(=CC2)OCO3", "physical_data": {"Molecular Weight": "285.34", "Molecular Formula": "C17H19NO3", "Melting Point": "131.5 \u00b0C"}}