{"cas_no": "94-64-4", "cn_name": "N-(2-\u6c2f\u82c4\u57fa)-N-\u7532\u80fa", "en_name": ["2-Chloro-N-methylbenzenemethanamine", "Benzenemethanamine, 2-chloro-N-methyl-", "Benzylamine, o-chloro-N-methyl-", "2-Chloro-N-methylbenzenemethanamine", "o-Chloro-N-methylbenzylamine", "2-Chloro-N-methylbenzylamine", "N-Methyl-o-chlorobenzylamine", "Methyl((2-chlorophenyl)methyl)amine", "(2-Chlorobenzyl)methylamine", "N-2-Chlorobenzylmethylamine", "1-(2-Chlorophenyl)-N-methylmethanamine", "N-Methyl-2-chlorobenzylamine", "N-(2-Chlorobenzyl)-N-methylamine", "[(2-Chlorophenyl)methyl](methyl)amine"], "SMILES": "C(NC)C1=C(Cl)C=CC=C1", "physical_data": {"Molecular Weight": "155.62", "Molecular Formula": "C8H10ClN", "Boiling Point": "83-84 \u00b0C @ Press: 2 Torr"}}