{"cas_no": "94-67-7", "cn_name": "\u6c34\u6768\u919b\u809f", "en_name": ["Salicylaldoxime", "Benzaldehyde, 2-hydroxy-, oxime", "Salicylaldehyde, oxime", "o-Hydroxybenzaldehyde oxime", "Salicylaldoxime", "o-Hydroxybenzaldoxime", "Saldox", "2-Hydroxybenzaldehyde oxime", "2-Hydroxybenzaldoxime", "Salicylaldehydoxime", "(2-Hydroxyphenylmethylene)azanol", "Salox", "NSC 5057", "2-Formylphenol oxime"], "SMILES": "C(=NO)C1=C(O)C=CC=C1", "physical_data": {"Molecular Weight": "137.14", "Molecular Formula": "C7H7NO2", "Boiling Point": "90-92 \u00b0C @ Press: 15 Torr", "Melting Point": "57 \u00b0C"}}