{"cas_no": "94-75-7", "cn_name": "2,4-\u4e8c\u6c2f\u82ef\u6c27\u4e59\u9178", "en_name": ["(2,4-Dichlorophenoxy)acetic acid", "Acetic acid, 2-(2,4-dichlorophenoxy)-", "Acetic acid, (2,4-dichlorophenoxy)-", "2-(2,4-Dichlorophenoxy)acetic acid", "2,4-D", "2,4-D Acid", "2,4-Dichlorphenoxyacetic acid", "Hedonal (herbicide)", "Pielik", "Vidon 638", "(2,4-Dichlorophenoxy)acetic acid", "Dichlorophenoxyacetic acid", "Foredex 75", "Verton 2D", "B-Selektonon", "Dicopur", "Fernimine", "Netagrone", "Ipaner", "2,4-PA", "Hedonal", "Diclordon", "2,4-Dichlorophenoxyethanoic acid", "Mota Maskros", "SDMA", "Deherban", "Basalcoat", "Amoxone", "Aminopielik 50SL", "Monosan herbi", "Desormone", "Tiller S", "NSC 190751", "NSC 2925", "Esterone", "Isadiamineyeom", "Dezormon", "Huragan", "HM 2010", "Unison", "Barrage HF", "Profiamina", "Invesamina 480SL", "2-(2,4-Dichlorophenoxy)acetate"], "SMILES": "O(CC(O)=O)C1=C(Cl)C=C(Cl)C=C1", "physical_data": {"Molecular Weight": "221.04", "Molecular Formula": "C8H6Cl2O3", "Boiling Point": "160 \u00b0C @ Press: 0.4 Torr", "Melting Point": "138 \u00b0C", "Density": "1.42 g/cm\u00b3 @ Temp: 25 \u00b0C"}}