{"cas_no": "94-71-3", "cn_name": "\u90bb\u4e59\u6c27\u57fa\u82ef\u915a", "en_name": ["2-Ethoxyphenol", "Phenol, 2-ethoxy-", "Phenol, o-ethoxy-", "2-Ethoxyphenol", "Guaethol", "Guethol", "o-Ethoxyphenol", "Catechol monoethyl ether", "1-Hydroxy-2-ethoxybenzene", "Pyrocatechol monoethyl ether", "NSC 1809"], "SMILES": "O(CC)C1=C(O)C=CC=C1", "physical_data": {"Molecular Weight": "138.16", "Molecular Formula": "C8H10O2", "Boiling Point": "217 \u00b0C", "Melting Point": "29 \u00b0C", "Density": "1.0903 g/cm\u00b3 @ Temp: 25 \u00b0C"}}