{"cas_no": "94-78-0", "cn_name": "\u975e\u90a3\u5421\u5576", "en_name": ["Phenazopyridine", "2,6-Pyridinediamine, 3-(2-phenyldiazenyl)-", "Pyridine, 2,6-diamino-3-(phenylazo)-", "2,6-Pyridinediamine, 3-(phenylazo)-", "3-(2-Phenyldiazenyl)-2,6-pyridinediamine", "2,6-Diamino-3-phenylazopyridine", "Gastracid", "Phenazopyridine", "NSC 145895", "Gastrotest", "MeSH ID: D010621"], "SMILES": "N(=NC1=CC=CC=C1)C2=C(N)N=C(N)C=C2", "physical_data": {"Molecular Weight": "213.24", "Molecular Formula": "C11H11N5", "Melting Point": "139 \u00b0C"}}