{"cas_no": "94-70-2", "cn_name": "\u90bb\u6c28\u57fa\u82ef\u4e59\u919a", "en_name": ["2-Ethoxyaniline", "Benzenamine, 2-ethoxy-", "o-Phenetidine", "2-Ethoxybenzenamine", "2-Aminophenetole", "2-Ethoxyaniline", "o-Ethoxyaniline", "2-Ethoxyphenylamine", "NSC 9818", "o-Ethoxylaniline", "2-Aminophenyl ethyl ether"], "SMILES": "O(CC)C1=C(N)C=CC=C1", "physical_data": {"Molecular Weight": "137.18", "Molecular Formula": "C8H11NO", "Boiling Point": "232.5 \u00b0C", "Melting Point": "&lt;-21 \u00b0C", "Density": "1.0508 g/cm\u00b3 @ Temp: 20 \u00b0C"}}