{"cas_no": "94-74-6", "cn_name": "2-\u7532\u57fa-4-\u6c2f\u82ef\u6c27\u4e59\u9178", "en_name": ["(4-Chloro-2-methylphenoxy)acetic acid", "Acetic acid, 2-(4-chloro-2-methylphenoxy)-", "Acetic acid, [(4-chloro-o-tolyl)oxy]-", "Acetic acid, (4-chloro-2-methylphenoxy)-", "Acetic acid, (4-chloro-o-toloxy)-", "2-(4-Chloro-2-methylphenoxy)acetic acid", "Agroxone", "(4-Chloro-2-methylphenoxy)acetic acid", "Herbicide M", "Leuna M", "MCP", "Methoxone", "(2-Methyl-4-chlorophenoxy)acetic acid", "Mephanac", "Agroxon", "Hedonal M", "2M4Kh", "MCPA", "[(4-Chloro-o-tolyl)oxy]acetic acid", "2,4-MCPA", "Anicon kombi", "Anicon M", "B-Selektonon M", "Dicopur M", "Emcepan", "Hedapur M 52", "Hedarex M", "Netazol", "Okultin M", "2M-4Ch", "Metaxon", "2M2Kh", "Hormoneste", "Rhonox", "Mecaphar", "Agritox 50", "Agritox", "NSC 2351", "MCPA (acid)", "MCP (herbicide)", "CMPA", "MCPA (herbicide)", "Chipton", "SAN 75"], "SMILES": "O(CC(O)=O)C1=C(C)C=C(Cl)C=C1", "physical_data": {"Molecular Weight": "200.62", "Molecular Formula": "C9H9ClO3", "Boiling Point": "286.74 \u00b0C", "Melting Point": "118-119 \u00b0C", "Density": "1.56 g/cm\u00b3 @ Temp: 25 \u00b0C"}}