{"cas_no": "94-86-0", "cn_name": "2-\u4e59\u6c27\u57fa-5-(1-\u4e19\u70ef\u57fa)\u82ef\u915a", "en_name": ["Propenylguaethol", "Phenol, 2-ethoxy-5-(1-propen-1-yl)-", "Phenol, 2-ethoxy-5-propenyl-", "Phenol, 2-ethoxy-5-(1-propenyl)-", "m-Anol, 6-ethoxy-", "2-Ethoxy-5-(1-propen-1-yl)phenol", "6-Ethoxy-m-anol", "1-Ethoxy-2-hydroxy-4-propenylbenzene", "2-Ethoxy-5-propenylphenol", "Hydroxy methyl anethol", "Propenylguaethol", "Isosafroeugenol", "Vanitrope", "NSC 5194", "5-Propenylguaethol", "Propenylguaetol", "2-Ethoxy-5-prop-1-enylphenol"], "SMILES": "O(CC)C1=C(O)C=C(C=CC)C=C1", "physical_data": {"Molecular Weight": "178.23", "Molecular Formula": "C11H14O2", "Melting Point": "86 \u00b0C"}}