{"cas_no": "94-85-9", "cn_name": "2,5-\u4e8c\u4e59\u6c27\u57fa\u82ef\u80fa", "en_name": ["2,5-Diethoxyaniline", "Benzenamine, 2,5-diethoxy-", "Aniline, 2,5-diethoxy-", "2,5-Diethoxybenzenamine", "2,5-Diethoxyaniline", "NSC 7486"], "SMILES": "O(CC)C1=C(N)C=C(OCC)C=C1", "physical_data": {"Molecular Weight": "181.23", "Molecular Formula": "C10H15NO2", "Melting Point": "220-222 \u00b0C"}}