{"cas_no": "94-82-6", "cn_name": "2,4-\u4e8c\u6c2f\u82ef\u6c27\u4e01\u9178", "en_name": ["4-(2,4-Dichlorophenoxy)butyric acid", "Butanoic acid, 4-(2,4-dichlorophenoxy)-", "Butyric acid, 4-(2,4-dichlorophenoxy)-", "4-(2,4-Dichlorophenoxy)butanoic acid", "2,4-DB", "Butyrac", "Butyrac 118", "\u03b3-(2,4-Dichlorophenoxy)butyric acid", "4-(2,4-Dichlorophenoxy)butyric acid", "Legumex D", "2,4-Dichlorophenoxybutyric acid", "2,4-DM", "Legumex", "Sys 67 Buratal", "Buratal", "NSC 70337", "Butyrac 200"], "SMILES": "O(CCCC(O)=O)C1=C(Cl)C=C(Cl)C=C1", "physical_data": {"Molecular Weight": "249.09", "Molecular Formula": "C10H10Cl2O3", "Boiling Point": "324.35 \u00b0C", "Melting Point": "118-120 \u00b0C"}}