{"cas_no": "94-81-5", "cn_name": "2-\u7532\u57fa-4-\u6c2f\u82ef\u6c27\u57fa\u4e01\u9178", "en_name": ["4-(4-Chloro-2-methylphenoxy)butanoic acid", "Butanoic acid, 4-(4-chloro-2-methylphenoxy)-", "Butyric acid, 4-[(4-chloro-o-tolyl)oxy]-", "4-(4-Chloro-2-methylphenoxy)butanoic acid", "4MCPB", "4-(4-Chloro-2-methylphenoxy)butyric acid", "(4-Chloro-o-tolyloxy)butyric acid", "MCPB", "U46 MCPB", "4-(2-Methyl-4-chlorophenoxy)butyric acid", "Thitrol", "Trifolex", "2M4KhM", "2-Methyl-4-chlorophenoxybutyric acid", "2-Methyl-4-chlorophenoxy-\u03b3-butyric acid", "4-Chloro-2-methylphenoxybutyric acid", "Bexone", "\u03b3-MCPB", "2,4-MCPB", "2-Methyl-4-chlorophenoxy-\u03b3-butyrate", "NSC 102796", "CMPB", "4-(4-Chlroro-2-methylphenoxy)butanoic acid"], "SMILES": "O(CCCC(O)=O)C1=C(C)C=C(Cl)C=C1", "physical_data": {"Molecular Weight": "228.67", "Molecular Formula": "C11H13ClO3", "Boiling Point": "&gt;280 \u00b0C", "Melting Point": "100-101 \u00b0C"}}