{"cas_no": "94-89-3", "cn_name": "3-[(2-\u6c2f\u82ef\u57fa)\u6c28\u57fa]\u4e19\u8148", "en_name": ["3-[(2-Chlorophenyl)amino]propanenitrile", "Propanenitrile, 3-[(2-chlorophenyl)amino]-", "Propionitrile, 3-(o-chloroanilino)-", "3-[(2-Chlorophenyl)amino]propanenitrile", "3-(o-Chloranilino)propionitrile", "3-(2-Chlorophenylamino)propanenitrile"], "SMILES": "N(CCC#N)C1=C(Cl)C=CC=C1", "physical_data": {"Molecular Weight": "180.63", "Molecular Formula": "C9H9ClN2", "Boiling Point": "139-141 \u00b0C @ Press: 0.3 Torr"}}