{"cas_no": "94-80-4", "cn_name": "2,4-\u6ef4\u4e01\u916f", "en_name": ["Butyl (2,4-dichlorophenoxy)acetate", "Acetic acid, 2-(2,4-dichlorophenoxy)-, butyl ester", "Acetic acid, (2,4-dichlorophenoxy)-, butyl ester", "Butyl 2,4-D", "Butyl (2,4-dichlorophenoxy)acetate", "Esso Herbicide 10", "Lironox", "2,4-Dichlorophenoxyacetic acid butyl ester", "Fernesta", "Butyl dichlorophenoxyacetate", "2,4-Dichlorophenoxyacetic acid n-butyl ester", "2,4-DBE", "Butapon", "Hi-Ester 2,4-D", "NSC 409767", "Esteron 400BR", "2,4-D Butylate", "2,4-D Butyl ester"], "SMILES": "O(CC(OCCCC)=O)C1=C(Cl)C=C(Cl)C=C1", "physical_data": {"Molecular Weight": "277.14", "Molecular Formula": "C12H14Cl2O3", "Boiling Point": "146-147 \u00b0C @ Press: 1 Torr", "Melting Point": "9 \u00b0C"}}