{"cas_no": "94-99-5", "cn_name": "2,4-\u4e8c\u6c2f\u6c2f\u82c4", "en_name": ["2,4-Dichlorobenzyl chloride", "Benzene, 2,4-dichloro-1-(chloromethyl)-", "Toluene, \u03b1,2,4-trichloro-", "2,4-Dichloro-1-(chloromethyl)benzene", "2,4-Dichlorobenzyl chloride", "\u03b1,2,4-Trichlorotoluene", "2,4,\u03b1-Trichlorotoluene", "1-Chloromethyl-2,4-dichlorobenzene", "NSC 406892"], "SMILES": "C(Cl)C1=C(Cl)C=C(Cl)C=C1", "physical_data": {"Molecular Weight": "195.47", "Molecular Formula": "C7H5Cl3", "Boiling Point": "248 \u00b0C", "Melting Point": "-2.6 \u00b0C"}}