{"cas_no": "94-91-7", "cn_name": "N,N'-\u53cc\u4e9a\u6c34\u6768-1,2-\u4e19\u4e8c\u80fa", "en_name": ["N,N\u2032-Disalicylidene-1,2-propanediamine", "Phenol, 2,2\u2032-[(1-methyl-1,2-ethanediyl)bis(nitrilomethylidyne)]bis-", "o-Cresol, \u03b1,\u03b1\u2032-(propylenedinitrilo)di-", "2,2\u2032-[(1-Methyl-1,2-ethanediyl)bis(nitrilomethylidyne)]bis[phenol]", "Tenamene 60", "N,N\u2032-Disalicylidene-1,2-diaminopropane", "N,N\u2032-Disalicylidene-1,2-propanediamine", "N,N\u2032-Bis(salicylidene)-1,2-diaminopropane", "N,N\u2032-Disalicylidene-1,2-propylenediamine", "DMD", "Cuvan 80", "N,N\u2032-Propylenebis(salicylideneimine)", "Keromet MD", "Metal Deactivator 2", "N,N\u2032-1,2-Propylenebis(salicylideneamine)", "Sekurisu AK 24M", "NSC 67004", "NSC 68420", "KMD 80", "Dailube G 25", "Ethanox 4705", "N,N\u2032-Bis(salicylidene)propane-1,2-diamine", "T 1201", "N\u2032,N-Bis(salicylidene)-1,2-propanediamine"], "SMILES": "C(=NCC(N=CC1=C(O)C=CC=C1)C)C2=C(O)C=CC=C2", "physical_data": {"Molecular Weight": "282.34", "Molecular Formula": "C17H18N2O2", "Melting Point": "45.1-45.9 \u00b0C"}}