{"cas_no": "94-97-3", "cn_name": "5-\u6c2f\u4ee3\u82ef\u5e76\u4e09\u6c2e\u5511", "en_name": ["5-Chlorobenzotriazole", "1H-Benzotriazole, 6-chloro-", "1H-Benzotriazole, 5-chloro-", "Benzotriazole, 5-chloro-", "6-Chloro-1H-benzotriazole", "5-Chlorobenzotriazole", "6-Chlorobenzotriazole", "5-Chloro-1H-benzotriazole", "NSC 16507", "NSC 58361", "5-Chloro-1H-benzo[d][1,2,3]triazole", "6-Chloro-1H-benzo[d][1,2,3]triazole"], "SMILES": "ClC=1C=C2C(=CC1)NN=N2", "physical_data": {"Molecular Weight": "153.57", "Molecular Formula": "C6H4ClN3", "Melting Point": "155 \u00b0C"}}