{"cas_no": "94-98-4", "cn_name": "2,4-\u4e8c\u7532\u57fa\u82c4\u80fa", "en_name": ["2,4-Dimethylbenzenemethanamine", "Benzenemethanamine, 2,4-dimethyl-", "Benzylamine, 2,4-dimethyl-", "2,4-Dimethylbenzenemethanamine", "2,4-Dimethylbenzylamine", "(2,4-Dimethylphenyl)methanamine"], "SMILES": "C(N)C1=C(C)C=C(C)C=C1", "physical_data": {"Molecular Weight": "135.21", "Molecular Formula": "C9H13N", "Boiling Point": "105-115 \u00b0C @ Press: 20 Torr", "Melting Point": "214-216 \u00b0C"}}