{"cas_no": "94-93-9", "cn_name": "N,N'-\u53cc\uff08\u4e9a\u6c34\u6768\u57fa\uff09\u4e9a\u4e59\u4e8c\u80fa", "en_name": ["Salen", "Phenol, 2,2\u2032-[1,2-ethanediylbis(nitrilomethylidyne)]bis-", "o-Cresol, \u03b1,\u03b1\u2032-(ethylenedinitrilo)di-", "2,2\u2032-[1,2-Ethanediylbis(nitrilomethylidyne)]bis[phenol]", "N,N\u2032-Di(salicylidene)ethylenediamine", "\u03b1,\u03b1\u2032-(Ethylenedinitrilo)di-o-cresol", "1,2-Ethanediamine, N,N\u2032-bis[(2-hydroxyphenyl)methylene]-", "Di(salicylidene)ethylenediamine", "N,N\u2032-Bis(salicylidene)ethylenediamine", "N,N\u2032-Ethylenebis(salicylideneimine)", "Disalicylidene-1,2-ethanediamine", "N,N\u2032-Bis(2-hydroxybenzylidene)ethylenediamine", "N,N\u2032-Bis(o-hydroxybenzylidene)ethylenediamine", "Salen", "Bis(salicylaldehyde)ethylenediimine", "N,N\u2032-Disalicylidene-1,2-diaminoethane", "N,N\u2032-Bis(salicylidene)-1,2-ethanediamine", "Salicylaldehyde ethylenediamine diimine", "N,N\u2032-Disalicylidene-1,2-ethanediamine", "Salicylaldehyde ethylenediamine bisimine", "NSC 2079", "1,2-Bis[[(2-hydroxyphenyl)methylene]amino]ethane", "1,2-Ethanedi(salicylaldimine)", "1,2-Bis(salicylideneamino)ethane", "1,6-Bis(2-hydroxyphenyl)-2,5-diazahexa-1,5-diene", "N,N\u2032-Ethylenebis(salicylaldimine)", "N,N\u2032-Bis(salicylidene)ethylene-1,2-diamine", "N,N\u2032-Bis(2-hydroxybenzylidene)-1,2-ethanediamine", "2,2\u2032-((Ethane-1,2-diylbis(azanylylidene))bis(methanylylidene))diphenol", "N,N\u2032-Ethylenebis(salicylimine)"], "SMILES": "C(=NCCN=CC1=C(O)C=CC=C1)C2=C(O)C=CC=C2", "physical_data": {"Molecular Weight": "268.31", "Molecular Formula": "C16H16N2O2", "Melting Point": "125.5 \u00b0C"}}