{"cas_no": "94-96-2", "cn_name": "2-\u4e59\u57fa-1,3-\u5df1\u4e8c\u9187", "en_name": ["2-Ethyl-1,3-hexanediol", "1,3-Hexanediol, 2-ethyl-", "2-Ethyl-1,3-hexanediol", "6-12", "Ethohexadiol", "2-Ethyl-3-propyl-1,3-propanediol", "3-Hydroxymethyl-n-heptan-4-ol", "Octylene glycol", "Repellent 612", "Rutgers 612", "2-Ethyl-1,3-hexylene glycol", "2-Ethylhexanediol", "Diol-Kyowa 8", "NSC 3881", "2-Ethyl-1,3-dihydroxyhexane"], "SMILES": "C(C(CCC)O)(CC)CO", "physical_data": {"Molecular Weight": "146.23", "Molecular Formula": "C8H18O2", "Boiling Point": "244.2 \u00b0C @ Press: 760 Torr", "Melting Point": "-40 \u00b0C", "Density": "0.9325 g/cm\u00b3 @ Temp: 22 \u00b0C"}}