{"cas_no": "940-71-6", "cn_name": "\u516d\u6c2f\u73af\u4e09\u78f7\u8148", "en_name": ["Hexachlorocyclotriphosphazene", "2\u03bb5,4\u03bb5,6\u03bb5-1,3,5,2,4,6-Triazatriphosphorine, 2,2,4,4,6,6-hexachloro-", "1,3,5,2,4,6-Triazatriphosphorine, 2,2,4,4,6,6-hexachloro-2,2,4,4,6,6-hexahydro-", "Phosphonitrile chloride, trimer", "2,2,4,4,6,6-Hexachloro-2\u03bb5,4\u03bb5,6\u03bb5-1,3,5,2,4,6-triazatriphosphorine", "Hexachlorotriphosphonitrile", "Phosphonitrile chloride, cyclic trimer", "Hexachlorocyclophosphazatriene", "Triphosphonitrilic chloride", "Phosphonitrilic chloride cyclic trimer", "Cyclophosphonitrilic chloride trimer", "Phosphononitrilic chloride trimer", "Triphosphonitrile chloride", "Phosphonitrilic chloride trimer", "Hexachlorocyclotriphosphazatriene", "2,2,4,4,6,6-Hexachloro-2,2,4,4,6,6-hexahydro-1,3,5,2,4,6-triazatriphosphorine", "Cyclophosphazene dichloride trimer", "Hexachloro-1,3,5,2,4,6-triazatriphosphorine", "2,2,4,4,6,6-Hexachlorocyclotriphosphazatriene", "Dichlorocyclotriphosphazene", "Hexachlorocyclotriphosphazene", "2,2,4,4,6,6-Hexachlorocyclotriphosphazene", "Hexachlorocyclotriphosphatriazene", "Hexachlorotriphosphazene", "Phosnic 390", "Dichlorophosphazene trimer", "NSC 209799", "NSC 2667", "Dichlorophosphazene cyclic trimer", "Tris(phosphonitriliic chloride)", "Tris(phosphonitrilic chloride)", "Samreal 87", "HCCP"], "SMILES": "ClP=1(Cl)N=P(Cl)(Cl)N=P(Cl)(Cl)N1", "physical_data": {"Molecular Weight": "347.66", "Molecular Formula": "Cl6N3P3", "Boiling Point": "257 \u00b0C", "Melting Point": "114 \u00b0C"}}