{"cas_no": "940-62-5", "cn_name": "\u5bf9\u6c2f\u8089\u6842\u9178", "en_name": ["(2E)-3-(4-Chlorophenyl)-2-propenoic acid", "2-Propenoic acid, 3-(4-chlorophenyl)-, (2E)-", "Cinnamic acid, p-chloro-, (E)-", "2-Propenoic acid, 3-(4-chlorophenyl)-, (E)-", "(2E)-3-(4-Chlorophenyl)-2-propenoic acid", "trans-p-Chlorocinnamic acid", "(E)-p-Chlorocinnamic acid", "(E)-4-Chlorocinnamic acid", "trans-4-Chlorocinnamic acid", "(E)-3-(4-Chlorophenyl)acrylic acid", "NSC 52172", "trans-3-(4-Chlorophenyl)-2-propenoic acid", "(E)-3-(4-Chlorophenyl)-2-propenoic acid", "(E)-3-(4-Chlorophenyl)acrylic acid"], "SMILES": "C(=CC(O)=O)C1=CC=C(Cl)C=C1", "physical_data": {"Molecular Weight": "182.60", "Molecular Formula": "C9H7ClO2", "Melting Point": "241 \u00b0C"}}