{"cas_no": "940-64-7", "cn_name": "(4-\u7532\u57fa\u82ef\u6c27\u57fa)\u4e59\u9178", "en_name": ["(4-Methylphenoxy)acetic acid", "Acetic acid, 2-(4-methylphenoxy)-", "Acetic acid, (p-tolyloxy)-", "Acetic acid, (4-methylphenoxy)-", "2-(4-Methylphenoxy)acetic acid", "(4-Methylphenoxy)acetic acid", "p-Methylphenoxyacetic acid", "p-(Tolyloxy)acetic acid", "NSC 38176", "2-p-Tolyloxyacetic acid"], "SMILES": "O(CC(O)=O)C1=CC=C(C)C=C1", "physical_data": {"Molecular Weight": "166.17", "Molecular Formula": "C9H10O3", "Melting Point": "140-142 \u00b0C"}}