{"cas_no": "940-31-8", "cn_name": "2-\u82ef\u6c27\u57fa\u4e19\u9178", "en_name": ["DL-2-Phenoxypropionic acid", "Propanoic acid, 2-phenoxy-", "Propionic acid, 2-phenoxy-", "2-Phenoxypropanoic acid", "2-Phenoxypropionic acid", "\u03b1-Phenoxypropionic acid", "\u03b1-Methylphenoxyacetic acid", "(\u00b1)-2-Phenoxypropionic acid", "DL-2-Phenoxypropionic acid", "NSC 1866", "NSC 404102", "2-PPA"], "SMILES": "O(C(C(O)=O)C)C1=CC=CC=C1", "physical_data": {"Molecular Weight": "166.17", "Molecular Formula": "C9H10O3", "Melting Point": "135 \u00b0C"}}