{"cas_no": "940-41-0", "cn_name": "2-\u82ef\u4e59\u57fa\u4e09\u6c2f\u5316\u7845\u70f7", "en_name": ["[2-(Trichlorosilyl)ethyl]benzene", "Benzene, [2-(trichlorosilyl)ethyl]-", "Silane, trichlorophenethyl-", "Silane, trichloro(2-phenylethyl)-", "[2-(Trichlorosilyl)ethyl]benzene", "(2-Phenylethyl)trichlorosilane", "Trichloro(2-phenylethyl)silane", "Trichlorophenethylsilane", "Phenethyltrichlorosilane", "1-Phenyl-2-(trichlorosilyl)ethane", "1-(Trichlorosilyl)-2-phenylethane", "2-(Trichlorosilyl)ethylbenzene", "Trichloro(\u03b2-phenylethyl)silane", "NSC 139848", "\u03b2-Phenetyltrichlorosilane", "PETS", "LP 1990", "3-Phenethyltrichlorosilane", "Trichloro(phenylethyl)silane"], "SMILES": "C(C[Si](Cl)(Cl)Cl)C1=CC=CC=C1", "physical_data": {"Molecular Weight": "239.60", "Molecular Formula": "C8H9Cl3Si", "Boiling Point": "242 \u00b0C", "Density": "1.240 g/cm\u00b3"}}