{"cas_no": "94022-99-8", "cn_name": "3-[2-(\u4e09\u6c1f\u7532\u57fa)\u82ef\u57fa]\u4e19\u9178", "en_name": ["2-(Trifluoromethyl)benzenepropanoic acid", "Benzenepropanoic acid, 2-(trifluoromethyl)-", "2-(Trifluoromethyl)benzenepropanoic acid", "3-[2-(Trifluoromethyl)phenyl]propionic acid", "3-(2-Trifluoromethylphenyl)propanoic acid"], "SMILES": "C(F)(F)(F)C1=C(CCC(O)=O)C=CC=C1", "physical_data": {"Molecular Weight": "218.17", "Molecular Formula": "C10H9F3O2", "Melting Point": "63-65 \u00b0C"}}