{"cas_no": "94021-22-4", "cn_name": "2-1-\u54cc\u5576\u5421\u5576\u916e", "en_name": ["Pyrimidine, 2-(1-piperazinyl)-, hydrochloride (1:2)", "Pyrimidine, 2-(1-piperazinyl)-, hydrochloride (1:2)", "Pyrimidine, 2-(1-piperazinyl)-, dihydrochloride", "1-(2-Pyrimidinyl)piperazine dihydrochloride", "2-(1-Piperazinyl)pyrimidine dihydrochloride", "1-(2-Pyrimidyl)piperazine dihydrochloride", "NIH 10854", "N-(2-Pyrimidinyl)piperazine dihydrochloride", "4-(Pyrimidin-2-yl)piperazine dihydrochloride"], "SMILES": "C=1(N=CC=CN1)N2CCNCC2.Cl", "physical_data": {"Molecular Weight": "", "Molecular Formula": "C8H12N4.2ClH", "Melting Point": "252.5-253 \u00b0C"}}