{"cas_no": "94055-76-2", "cn_name": "\u7532\u78fa\u53f8\u7279", "en_name": ["Suplatast tosilate", "Sulfonium, [3-[[4-(3-ethoxy-2-hydroxypropoxy)phenyl]amino]-3-oxopropyl]dimethyl-, 4-methylbenzenesulfonate (1:1)", "Sulfonium, [3-[[4-(3-ethoxy-2-hydroxypropoxy)phenyl]amino]-3-oxopropyl]dimethyl-, salt with 4-methylbenzenesulfonic acid (1:1)", "Suplatast tosilate", "Suplatast tosylate", "IPD 1151T", "[2-[4-(3-Ethoxy-2-hydroxypropoxy)phenylcarbamoyl]ethyl]dimethylsulfonium p-toluenesulfonate", "(\u00b1)-[2-[4-(3-Ethoxy-2-hydroxypropoxy)phenylcarbamoyl]ethyl]dimethylsulfonium p-toluenesulfonate"], "SMILES": "S(=O)(=O)([O-])C1=CC=C(C)C=C1.O(CC(COCC)O)C1=CC=C(NC(CC[S+](C)C)=O)C=C1", "physical_data": {"Molecular Weight": "", "Molecular Formula": "C16H26NO4S.C7H7O3S", "Melting Point": "70-73 \u00b0C"}}