{"cas_no": "94088-46-7", "cn_name": "2-\u6c1f-6-\u7532\u6c27\u57fa\u82ef\u8148", "en_name": ["2-Fluoro-6-methoxybenzonitrile", "Benzonitrile, 2-fluoro-6-methoxy-", "2-Fluoro-6-methoxybenzonitrile", "2-Methoxy-6-fluorobenzonitrile", "6-Methoxy-2-fluorobenzonitrile"], "SMILES": "O(C)C1=C(C#N)C(F)=CC=C1", "physical_data": {"Molecular Weight": "151.14", "Molecular Formula": "C8H6FNO", "Melting Point": "93-95 \u00b0C"}}