{"cas_no": "940948-30-1", "cn_name": "4-\u6c2f-2-\u7898-1-(\u82ef\u57fa\u78fa\u9170\u57fa)-1H-\u5421\u54af\u5e76[2,3-B]\u5421\u5576", "en_name": ["4-Chloro-2-iodo-1-(phenylsulfonyl)-1H-pyrrolo[2,3-b]pyridine", "1H-Pyrrolo[2,3-b]pyridine, 4-chloro-2-iodo-1-(phenylsulfonyl)-", "4-Chloro-2-iodo-1-(phenylsulfonyl)-1H-pyrrolo[2,3-b]pyridine", "1-(Benzenesulfonyl)-4-chloro-2-iodo-pyrrolo[2,3-b]pyridine", "1-(Phenylsulfonyl)-4-chloro-2-iodopyrrolo[2,3-b]pyridine", "1-Benzenesulfonyl-4-chloro-2-iodo-7-azaindole"], "SMILES": "S(=O)(=O)(N1C=2C(C=C1I)=C(Cl)C=CN2)C3=CC=CC=C3", "physical_data": {"Molecular Weight": "418.64", "Molecular Formula": "C13H8ClIN2O2S", "Melting Point": "135 \u00b0C"}}