{"cas_no": "941-37-7", "cn_name": "1-\u6eb4-3,5-\u4e8c\u7532\u57fa\u91d1\u521a\u70f7", "en_name": ["1-Bromo-3,5-dimethyladamantane", "Tricyclo[3.3.1.13,7]decane, 1-bromo-3,5-dimethyl-", "Adamantane, 1-bromo-3,5-dimethyl-", "1-Bromo-3,5-dimethyltricyclo[3.3.1.13,7]decane", "3,5-Dimethyl-1-bromoadamantane", "1,3-Dimethyl-5-bromoadamantane", "1-Bromo-3,5-dimethyladamantane", "NSC 102293"], "SMILES": "BrC12CC3(C)CC(C)(C1)CC(C2)C3", "physical_data": {"Molecular Weight": "243.18", "Molecular Formula": "C12H19Br", "Boiling Point": "67-69 \u00b0C @ Press: 0.03 Torr"}}