{"cas_no": "941-55-9", "cn_name": "\u5bf9\u7532\u82ef\u78fa\u9170\u53e0\u6c2e", "en_name": ["Tosyl azide", "Benzenesulfonyl azide, 4-methyl-", "p-Toluenesulfonyl azide", "4-Methylbenzenesulfonyl azide", "p-Toluenesulfonazide", "Tosyl azide", "Tosyl nitride", "p-Tolylsulfonyl azide", "p-Methylphenylsulfonyl azide", "p-Toluenesulfonic acid azide", "Azido-p-toluenesulfonic acid", "4-Toluenesulfonyl azide", "p-Tosyl azide", "4-Methylphenylsulfonyl azide", "NSC 138649", "p-Methylbenzenesulfonyl azide"], "SMILES": "S(N=[N+]=[N-])(=O)(=O)C1=CC=C(C)C=C1", "physical_data": {"Molecular Weight": "", "Molecular Formula": "C7H7N3O2S", "Melting Point": "22 \u00b0C"}}