{"cas_no": "941-98-0", "cn_name": "1-\u8418\u4e59\u916e", "en_name": ["1-Acetylnaphthalene", "Ethanone, 1-(1-naphthalenyl)-", "1\u2032-Acetonaphthone", "1-(1-Naphthalenyl)ethanone", "\u03b1-Acetonaphthone", "Methyl 1-naphthyl ketone", "1-Acetonaphthone", "Methyl \u03b1-naphthyl ketone", "1-Acetonaphthalene", "1-Acetylnaphthalene", "1-Naphthyl methyl ketone", "\u03b1-Acetylnaphthalene", "\u03b1-Naphthyl methyl ketone", "1-(1-Naphthyl)ethanone", "NSC 7659", "1-(Naphthalen-4-yl)ethanone", "1-(Naphthalen-1-yl)ethan-1-one"], "SMILES": "C(C)(=O)C=1C2=C(C=CC1)C=CC=C2", "physical_data": {"Molecular Weight": "170.21", "Molecular Formula": "C12H10O", "Boiling Point": "297 \u00b0C", "Melting Point": "34 \u00b0C", "Density": "1.1251 g/cm\u00b3 @ Temp: 20 \u00b0C"}}