{"cas_no": "941-69-5", "cn_name": "N-\u82ef\u57fa\u9a6c\u6765\u9170\u4e9a\u80fa", "en_name": ["N-Phenylmaleimide", "1H-Pyrrole-2,5-dione, 1-phenyl-", "Maleimide, N-phenyl-", "1-Phenyl-1H-pyrrole-2,5-dione", "Maleanil", "N-Phenylmaleimide", "Phenylmaleimide", "Maleimidobenzene", "N-Phenylmaleic acid imide", "N-Phenylmaleic imide", "N-Phenylmaleinimide", "Imilex P", "NSC 8183", "1-Phenyl-pyrrole-2,5-dione", "N-Phenylpyrrole-2,5-dione", "1-Phenyl-2,5-dihydro-1H-pyrrole-2,5-dione", "1-[4-(Acetoxy)phenyl]maleimide"], "SMILES": "O=C1N(C(=O)C=C1)C2=CC=CC=C2", "physical_data": {"Molecular Weight": "173.17", "Molecular Formula": "C10H7NO2", "Boiling Point": "181 \u00b0C @ Press: 27 Torr", "Melting Point": "90.5 \u00b0C", "Density": "1.405 g/cm\u00b3"}}