{"cas_no": "94105-90-5", "cn_name": "\u96cc\u9a6c\u915a", "en_name": ["3,4-Dihydro-3-(4-hydroxyphenyl)-2H-1-benzopyran-7-ol", "2H-1-Benzopyran-7-ol, 3,4-dihydro-3-(4-hydroxyphenyl)-", "3,4-Dihydro-3-(4-hydroxyphenyl)-2H-1-benzopyran-7-ol", "(\u00b1)-Equol", "NV 07\u03b1", "7,4\u2032-Homoisoflavane"], "SMILES": "OC=1C=C2C(CC(CO2)C3=CC=C(O)C=C3)=CC1", "physical_data": {"Molecular Weight": "242.27", "Molecular Formula": "C15H14O3", "Melting Point": "158 \u00b0C"}}