{"cas_no": "94125-34-5", "cn_name": "\u6c1f\u78fa\u9686", "en_name": ["Prosulfuron", "Benzenesulfonamide, N-[[(4-methoxy-6-methyl-1,3,5-triazin-2-yl)amino]carbonyl]-2-(3,3,3-trifluoropropyl)-", "N-[[(4-Methoxy-6-methyl-1,3,5-triazin-2-yl)amino]carbonyl]-2-(3,3,3-trifluoropropyl)benzenesulfonamide", "CGA 152005", "N-(4-Methoxy-6-methyl-1,3,5-triazin-2-yl)-N\u2032-[2-(3,3,3-trifluoroprop-1-yl)benzenesulfonyl]urea", "Prosulfuron", "Peak 57WG", "Peak", "Pik"], "SMILES": "C(CC(F)(F)F)C1=C(S(NC(NC=2N=C(OC)N=C(C)N2)=O)(=O)=O)C=CC=C1", "physical_data": {"Molecular Weight": "419.38", "Molecular Formula": "C15H16F3N5O4S", "Melting Point": "155 \u00b0C (decomp)"}}