{"cas_no": "94134-18-6", "cn_name": "2-\u7532\u6c27\u57fa-6-\u4e19\u57fa\u8418", "en_name": ["2-Methoxy-6-propylnaphthalene", "Naphthalene, 2-methoxy-6-propyl-", "2-Methoxy-6-propylnaphthalene", "2-Propyl-6-methoxynaphthalene"], "SMILES": "C(CC)C1=CC2=C(C=C(OC)C=C2)C=C1", "physical_data": {"Molecular Weight": "200.28", "Molecular Formula": "C14H16O", "Melting Point": "49-50 \u00b0C"}}