{"cas_no": "94148-67-1", "cn_name": "1,4-\u4e8c(4-\u6c28\u57fa\u82ef\u6c27\u57fa)-2-\u82ef\u57fa\u82ef", "en_name": ["4,4\u2032-[[1,1\u2032-Biphenyl]-2,5-diylbis(oxy)]bis[benzenamine]", "Benzenamine, 4,4\u2032-[[1,1\u2032-biphenyl]-2,5-diylbis(oxy)]bis-", "4,4\u2032-[[1,1\u2032-Biphenyl]-2,5-diylbis(oxy)]bis[benzenamine]", "1,4-Bis(4-aminophenoxy)-2-phenylbenzene", "4,4\u2032-[(2-Phenyl-p-phenylene)dioxy]dianiline", "2,5-Bis(4-aminophenoxy)biphenyl"], "SMILES": "O(C1=C(C=C(OC2=CC=C(N)C=C2)C=C1)C3=CC=CC=C3)C4=CC=C(N)C=C4", "physical_data": {"Molecular Weight": "368.43", "Molecular Formula": "C24H20N2O2", "Melting Point": "67-70 \u00b0C"}}