{"cas_no": "94166-58-2", "cn_name": "2-\u6c28\u57fa\u5421\u5576", "en_name": ["6-Methoxy-N-methyl-3-nitro-2-pyridinamine", "2-Pyridinamine, 6-methoxy-N-methyl-3-nitro-", "6-Methoxy-N-methyl-3-nitro-2-pyridinamine", "6-Methoxy-2-methylamino-3-nitropyridine", "6-Methoxy-N-methyl-3-nitropyridin-2-amine", "2-Methylamino-3-nitro-6-methoxypyridine"], "SMILES": "N(C)C1=C(N(=O)=O)C=CC(OC)=N1", "physical_data": {"Molecular Weight": "183.16", "Molecular Formula": "C7H9N3O3", "Melting Point": "152-153 \u00b0C"}}