{"cas_no": "94160-25-5", "cn_name": "ETHYL 3-HYDROXYCYCLOHEXANECARBOXYLATE", "en_name": ["Cyclohexanecarboxylic acid, 3-hydroxy-, ethyl ester", "Cyclohexanecarboxylic acid, 3-hydroxy-, ethyl ester", "Ethyl 3-hydroxycyclohexanecarboxylate"], "SMILES": "C(OCC)(=O)C1CC(O)CCC1", "physical_data": {"Molecular Weight": "172.22", "Molecular Formula": "C9H16O3", "Boiling Point": "138 \u00b0C @ Press: 9 Torr"}}