{"cas_no": "941678-49-5", "cn_name": "\u9c81\u7d22\u5229\u66ff\u5c3c", "en_name": ["Ruxolitinib", "1H-Pyrazole-1-propanenitrile, \u03b2-cyclopentyl-4-(7H-pyrrolo[2,3-d]pyrimidin-4-yl)-, (\u03b2R)-", "(\u03b2R)-\u03b2-Cyclopentyl-4-(7H-pyrrolo[2,3-d]pyrimidin-4-yl)-1H-pyrazole-1-propanenitrile", "Ruxolitinib", "INCB 018424", "(3R)-3-Cyclopentyl-3-[4-(7H-pyrrolo[2,3-d]pyrimidin-4-yl)-1H-pyrazol-1-yl]propanenitrile", "INC 424", "(R)-3-[4-(7H-Pyrrolo[2,3-d]pyrimidin-4-yl)-1H-pyrazol-1-yl]-3-cyclopentylpropanenitrile", "Opzelura"], "SMILES": "C(CC#N)(N1C=C(C2=C3C(=NC=N2)NC=C3)C=N1)C4CCCC4", "physical_data": {"Molecular Weight": "306.36", "Molecular Formula": "C17H18N6", "Melting Point": "88 \u00b0C"}}