{"cas_no": "942-91-6", "cn_name": "S-\u786b\u4ee3\u82ef\u7532\u9170\u5def\u57fa\u4e59\u9178", "en_name": ["S-(Thiobenzoyl)thioglycolic acid", "Acetic acid, 2-[(phenylthioxomethyl)thio]-", "Benzoic acid, dithio-, ester with mercaptoacetic acid", "Acetic acid, [(phenylthioxomethyl)thio]-", "Benzoic acid, dithio-, carboxymethyl ester", "Acetic acid, mercapto-, dithiobenzoate", "2-[(Phenylthioxomethyl)thio]acetic acid", "Thiobenzoyl thioglycolate", "(Thiobenzoylthio)acetic acid", "Carboxymethyl dithiobenzoate", "NSC 42331", "NSC 68200", "[(Phenylcarbonothioyl)thio]acetic acid", "2-(Phenylcarbonothioylthio)acetic acid", "S-(Thiobenzoyl)thioglycolic acid", "2-(Thiobenzoylthio)acetic acid", "2-(Benzothioylthio)acetic acid", "2-(Benzenecarbonothioylsulfanyl)acetic acid"], "SMILES": "C(SCC(O)=O)(=S)C1=CC=CC=C1", "physical_data": {"Molecular Weight": "212.29", "Molecular Formula": "C9H8O2S2", "Melting Point": "123-125 \u00b0C"}}