{"cas_no": "942-06-3", "cn_name": "4\uff0c5-\u4e8c\u6c2f\u90bb\u82ef\u4e8c\u7532\u9178\u9150", "en_name": ["4,5-Dichlorophthalic anhydride", "1,3-Isobenzofurandione, 5,6-dichloro-", "Phthalic anhydride, 4,5-dichloro-", "5,6-Dichloro-1,3-isobenzofurandione", "4,5-Dichlorophthalic anhydride", "5,6-Dichloro-2-benzofuran-1,3-dione"], "SMILES": "O=C1C=2C(C(=O)O1)=CC(Cl)=C(Cl)C2", "physical_data": {"Molecular Weight": "217.01", "Molecular Formula": "C8H2Cl2O3", "Boiling Point": "313 \u00b0C", "Melting Point": "188 \u00b0C"}}