{"cas_no": "942-92-7", "cn_name": "\u82ef\u5df1\u916e", "en_name": ["Hexanophenone", "1-Hexanone, 1-phenyl-", "Hexanophenone", "1-Phenyl-1-hexanone", "Caprophenone", "Pentyl phenyl ketone", "1-Benzoylpentane", "Phenyl pentyl ketone", "n-Pentyl phenyl ketone", "NSC 8480"], "SMILES": "C(CCCCC)(=O)C1=CC=CC=C1", "physical_data": {"Molecular Weight": "176.25", "Molecular Formula": "C12H16O", "Boiling Point": "265 \u00b0C", "Melting Point": "27 \u00b0C", "Density": "0.95761 g/cm\u00b3 @ Temp: 25 \u00b0C"}}