{"cas_no": "942-26-7", "cn_name": "5-\u6c2f\u8272\u80fa\u76d0\u9178\u76d0", "en_name": ["1H-Indole-3-ethanamine, 5-chloro-, hydrochloride (1:1)", "1H-Indole-3-ethanamine, 5-chloro-, hydrochloride (1:1)", "Indole, 3-(2-aminoethyl)-5-chloro-, hydrochloride", "1H-Indole-3-ethanamine, 5-chloro-, monohydrochloride", "5-Chlorotryptamine hydrochloride", "2-(5-Chloro-1H-indol-3-yl)ethan-1-amine hydrochloride", "2-(5-Chloro-1H-indol-3-yl)-ethylamine", "hydrochloride", "2-(5-Chloro-1H-indol-3-yl)ethanamine hydrochloride", "2-(5-Chloro-1H-indol-3-yl)ethan-1-aminium chloride", "5-chlorotryptammonium chloride"], "SMILES": "C(CN)C=1C=2C(NC1)=CC=C(Cl)C2.Cl", "physical_data": {"Molecular Weight": "", "Molecular Formula": "C10H11ClN2.ClH", "Melting Point": "300 \u00b0C (decomp)"}}