{"cas_no": "942-01-8", "cn_name": "1,2,3,4-\u56db\u6c22\u5494\u5511", "en_name": ["1,2,3,4-Tetrahydrocarbazole", "1H-Carbazole, 2,3,4,9-tetrahydro-", "Carbazole, 1,2,3,4-tetrahydro-", "2,3,4,9-Tetrahydro-1H-carbazole", "1,2,3,4-Tetrahydrocarbazole", "2,3-Tetramethyleneindole", "2,3-Tetramethylene-1H-indole", "1H-Indole, 2,3-(1,4-butanediyl)-", "1,2,3,4-Tetrahydro-9H-carbazole", "2,3,4,9-Tetrahydro-1H-carbazole", "NSC 17329", "5,6,7,8-Tetrahydro-9H-carbazole"], "SMILES": "C=12C=3C(NC1CCCC2)=CC=CC3", "physical_data": {"Molecular Weight": "171.24", "Molecular Formula": "C12H13N", "Boiling Point": "327.5 \u00b0C", "Melting Point": "120 \u00b0C"}}