{"cas_no": "94201-40-8", "cn_name": "N-\u82ef\u57fa\u54cc\u5576-4-\u7532\u9178", "en_name": ["1-Phenyl-4-piperidinecarboxylic acid", "4-Piperidinecarboxylic acid, 1-phenyl-", "1-Phenyl-4-piperidinecarboxylic acid", "1-Phenylpiperidine-4-carboxylic acid"], "SMILES": "C(O)(=O)C1CCN(CC1)C2=CC=CC=C2", "physical_data": {"Molecular Weight": "205.25", "Molecular Formula": "C12H15NO2", "Melting Point": "131 \u00b0C"}}