{"cas_no": "942070-22-6", "cn_name": "2,5-\u4e8c\u6eb4\u567b\u5429-3-\u787c\u9178\u9891\u90a3\u9187\u916f", "en_name": ["2-(2,5-Dibromo-3-thienyl)-4,4,5,5-tetramethyl-1,3,2-dioxaborolane", "1,3,2-Dioxaborolane, 2-(2,5-dibromo-3-thienyl)-4,4,5,5-tetramethyl-", "2-(2,5-Dibromo-3-thienyl)-4,4,5,5-tetramethyl-1,3,2-dioxaborolane", "2-(2,5-Dibromothiophen-3-yl)-4,4,5,5-tetramethyl-1,3,2-dioxaborolane"], "SMILES": "BrC1=C(C=C(Br)S1)B2OC(C)(C)C(C)(C)O2", "physical_data": {"Molecular Weight": "367.89", "Molecular Formula": "C10H13BBr2O2S", "Melting Point": "72-73 \u00b0C"}}