{"cas_no": "94242-51-0", "cn_name": "\u83ab\u897f\u6c99\u661f\u4e09\u6c1f\u4e59\u916f", "en_name": ["Ethyl 1-cyclopropyl-6,7,8-trifluoro-1,4-dihydro-4-oxoquinoline-3-carboxylate", "3-Quinolinecarboxylic acid, 1-cyclopropyl-6,7,8-trifluoro-1,4-dihydro-4-oxo-, ethyl ester", "Ethyl 1-cyclopropyl-6,7,8-trifluoro-1,4-dihydro-4-oxoquinoline-3-carboxylate", "1-Cyclopropyl-6,7,8-trifluoro-1,4-dihydro-4-oxo-3-quinolinecarboxylic acid ethyl ester"], "SMILES": "FC1=C2N(C=C(C(OCC)=O)C(=O)C2=CC(F)=C1F)C3CC3", "physical_data": {"Molecular Weight": "311.26", "Molecular Formula": "C15H12F3NO3", "Melting Point": "167-168 \u00b0C"}}