{"cas_no": "943-14-6", "cn_name": "2-\u6eb4-5-\u785d\u57fa\u82ef\u7532\u9178", "en_name": ["2-Bromo-5-nitrobenzoic acid", "Benzoic acid, 2-bromo-5-nitro-", "2-Bromo-5-nitrobenzoic acid", "NSC 52211"], "SMILES": "C(O)(=O)C1=CC(N(=O)=O)=CC=C1Br", "physical_data": {"Molecular Weight": "246.01", "Molecular Formula": "C7H4BrNO4", "Melting Point": "180-181 \u00b0C"}}