{"cas_no": "943-17-9", "cn_name": "\u76d0\u9178\u4f9d\u66ff\u798f\u6797", "en_name": ["Etilefrine hydrochloride", "Benzenemethanol, \u03b1-[(ethylamino)methyl]-3-hydroxy-, hydrochloride (1:1)", "Benzyl alcohol, \u03b1-[(ethylamino)methyl]-m-hydroxy-, hydrochloride", "Benzenemethanol, \u03b1-[(ethylamino)methyl]-3-hydroxy-, hydrochloride", "\u03b1-[(Ethylamino)methyl]-m-hydroxybenzyl alcohol hydrochloride", "1-(3-Hydroxyphenyl)-2-ethylaminoethanol hydrochloride", "Etilefrine hydrochloride", "Funasol", "dl-Effortil hydrochloride", "(\u00b1)-N-Ethylnorphenylephrine hydrochloride", "dl-N-Ethylnorphenylephrine hydrochloride", "dl-1-(3-Hydroxyphenyl)-1-hydroxy-2-ethylaminoethane hydrochloride", "dl-1-(3-Hydroxyphenyl)-2-ethylaminoethanol hydrochloride", "dl-Ethylphenylephrine hydrochloride", "(\u00b1)-Ethylphenylephrine hydrochloride", "Ethyl adrianol", "Effontil", "Effortil", "Updormin", "Phetanol", "Ethylephrine hydrochloride", "Tonus-Forte", "Apocretin", "Eti-Puren", "Kertasin", "dl-Etilefrin hydrochloride", "Circupon", "Effortilvet", "Pulsamin"], "SMILES": "C(CNCC)(O)C1=CC(O)=CC=C1.Cl", "physical_data": {"Molecular Weight": "", "Molecular Formula": "C10H15NO2.ClH", "Melting Point": "121 \u00b0C"}}