{"cas_no": "943-45-3", "cn_name": "2-\u7532\u57fa-2-\u82ef\u6c27\u57fa\u4e19\u9178", "en_name": ["Fibric acid", "Propanoic acid, 2-methyl-2-phenoxy-", "Propionic acid, 2-methyl-2-phenoxy-", "2-Methyl-2-phenoxypropanoic acid", "Phenoxy-\u03b1-isobutyric acid", "2-Phenoxy-2-methylpropionic acid", "Phenoxyisobutyric acid", "2-Phenoxyisobutyric acid", "2,2-Dimethylphenoxyacetic acid", "2,2-Dimethyl-2-phenoxyacetic acid", "Fibric acid", "NSC 34010", "2-Phenoxy-2,2-dimethyl acetic acid"], "SMILES": "O(C(C(O)=O)(C)C)C1=CC=CC=C1", "physical_data": {"Molecular Weight": "180.20", "Molecular Formula": "C10H12O3", "Melting Point": "97-98 \u00b0C"}}