{"cas_no": "943-15-7", "cn_name": "2-\u785d\u57fa-4-\u5f02\u4e19\u57fa\u7532\u82ef", "en_name": ["1-Methyl-4-(1-methylethyl)-2-nitrobenzene", "Benzene, 1-methyl-4-(1-methylethyl)-2-nitro-", "p-Cymene, 2-nitro-", "1-Methyl-4-(1-methylethyl)-2-nitrobenzene", "4-Isopropyl-2-nitrotoluene", "2-Nitro-p-cymene", "2-Methyl-5-isopropylnitrobenzene", "NSC 9839", "5-Isopropyl-2-methyl-1-nitrobenzene", "4-Isopropyl-1-methyl-2-nitrobenzene"], "SMILES": "N(=O)(=O)C1=CC(C(C)C)=CC=C1C", "physical_data": {"Molecular Weight": "179.22", "Molecular Formula": "C10H13NO2", "Boiling Point": "134 \u00b0C @ Press: 15 Torr", "Density": "1.067 g/cm\u00b3 @ Temp: 20 \u00b0C"}}