{"cas_no": "943-73-7", "cn_name": "L-\u9ad8\u82ef\u4e19\u6c28\u9178", "en_name": ["L-Homophenylalanine", "Benzenebutanoic acid, \u03b1-amino-, (\u03b1S)-", "Butyric acid, 2-amino-4-phenyl-, L-", "Benzenebutanoic acid, \u03b1-amino-, (S)-", "(\u03b1S)-\u03b1-Aminobenzenebutanoic acid", "L-Benzylalanine", "L-2-Amino-4-phenylbutyric acid", "L-\u03b3-Phenylbutyrine", "(+)-Homophenylalanine", "(+)-(S)-Homophenylalanine", "L-Homophenylalanine", "(S)-Homophenylalanine", "(+)-L-Homophenylalanine", "(2S)-2-Amino-4-phenylbutanoic acid", "(2S)-2-Azaniumyl-4-phenylbutanoate"], "SMILES": "C(CC(C(O)=O)N)C1=CC=CC=C1", "physical_data": {"Molecular Weight": "179.22", "Molecular Formula": "C10H13NO2", "Melting Point": "286-290 \u00b0C"}}