{"cas_no": "943-29-3", "cn_name": "\u53cd\u5f0f-4-\u53d4\u4e01\u57fa\u73af\u5df1\u7fa7\u9178", "en_name": ["trans-4-tert-Butylcyclohexanecarboxylic acid", "Cyclohexanecarboxylic acid, 4-(1,1-dimethylethyl)-, trans-", "Cyclohexanecarboxylic acid, 4-tert-butyl-, trans-", "trans-4-(1,1-Dimethylethyl)cyclohexanecarboxylic acid", "trans-4-tert-Butylcyclohexanecarboxylic acid", "trans-4-tert-Butylcyclohexanoic acid", "trans-4-tert-Butyl-1-cyclohexanecarboxylic acid"], "SMILES": "C(C)(C)(C)C1CCC(C(O)=O)CC1", "physical_data": {"Molecular Weight": "184.28", "Molecular Formula": "C11H20O2", "Melting Point": "173-176 \u00b0C"}}