{"cas_no": "943-89-5", "cn_name": "\u53cd\u5f0f-4-\u7532\u6c27\u57fa\u8089\u6842\u9178", "en_name": ["trans-4-Methoxycinnamic acid", "2-Propenoic acid, 3-(4-methoxyphenyl)-, (2E)-", "Cinnamic acid, p-methoxy-, (E)-", "2-Propenoic acid, 3-(4-methoxyphenyl)-, (E)-", "(2E)-3-(4-Methoxyphenyl)-2-propenoic acid", "trans-p-Methoxycinnamic acid", "(E)-p-Methoxycinnamic acid", "trans-4-Methoxycinnamic acid", "(E)-4-Methoxycinnamic acid", "(E)-3-(4-Methoxyphenyl)acrylic acid", "trans-3-(4-Methoxyphenyl)-2-propenoic acid", "(E)-3-(4-Methoxyphenyl)-2-propenoic acid", "(E)-3-(4-Methoxyphenyl)acrylic acid"], "SMILES": "C(=CC(O)=O)C1=CC=C(OC)C=C1", "physical_data": {"Molecular Weight": "178.18", "Molecular Formula": "C10H10O3", "Melting Point": "188 \u00b0C"}}