{"cas_no": "943-88-4", "cn_name": "\u5bf9\u7532\u6c27\u82ef\u4e59\u70ef\u57fa\u7532\u57fa\u916e", "en_name": ["4-(4-Methoxyphenyl)-3-buten-2-one", "3-Buten-2-one, 4-(4-methoxyphenyl)-", "3-Buten-2-one, 4-(p-methoxyphenyl)-", "4-(4-Methoxyphenyl)-3-buten-2-one", "p-Methoxybenzylideneacetone", "p-Methoxybenzalacetone", "4-Methoxybenzylideneacetone", "4-(p-Methoxyphenyl)-3-buten-2-one", "Methyl p-methoxystyryl ketone", "1-(p-Methoxyphenyl)-1-buten-3-one", "p-Methoxystyryl methyl ketone", "4-Methoxybenzalacetone", "Anisalacetone", "p-Anisalacetone", "4\u2032-Methoxybenzylideneacetone", "4-Methoxystyryl methyl ketone", "NSC 31752", "NSC 7946", "4-(p-Methoxyphenyl)-3-butene-2-one"], "SMILES": "C(=CC(C)=O)C1=CC=C(OC)C=C1", "physical_data": {"Molecular Weight": "176.21", "Molecular Formula": "C11H12O2", "Melting Point": "72.6-73.5 \u00b0C"}}