{"cas_no": "943-27-1", "cn_name": "\u5bf9\u53d4\u4e01\u57fa\u82ef\u4e59\u916e", "en_name": ["4\u2032-tert-Butylacetophenone", "Ethanone, 1-[4-(1,1-dimethylethyl)phenyl]-", "Acetophenone, 4\u2032-tert-butyl-", "1-[4-(1,1-Dimethylethyl)phenyl]ethanone", "4\u2032-tert-Butylacetophenone", "p-tert-Butylacetophenone", "p-tert-Butylacetylbenzene", "NSC 826", "4-tert-Butylphenyl methyl ketone", "1-(4-tert-Butylphenyl)ethanone", "4-t-Butylacetophenone", "1-[4-(tert-Butyl)phenyl]ethan-1-one"], "SMILES": "C(C)(C)(C)C1=CC=C(C(C)=O)C=C1", "physical_data": {"Molecular Weight": "176.25", "Molecular Formula": "C12H16O", "Boiling Point": "97-98 \u00b0C @ Press: 0.8 Torr", "Melting Point": "17.7 \u00b0C"}}