{"cas_no": "943-80-6", "cn_name": "4-\u6c28\u57fa-L-\u82ef\u4e19\u6c28\u9178", "en_name": ["4-Amino-L-phenylalanine", "L-Phenylalanine, 4-amino-", "Alanine, 3-(p-aminophenyl)-, L-", "4-Amino-L-phenylalanine", "L-(+)-p-Aminophenylalanine", "4-Aminophenylalanine", "p-Amino-L-phenylalanine", "L-4-Aminophenylalanine", "Aminophenylalanine", "p-Aminophenylalanine", "(S)-2-Amino-3-(4-aminophenyl)propionic acid", "(2S)-2-Amino-3-(4-aminophenyl)propanoic acid"], "SMILES": "C(C(C(O)=O)N)C1=CC=C(N)C=C1", "physical_data": {"Molecular Weight": "180.20", "Molecular Formula": "C9H12N2O2", "Melting Point": "265 \u00b0C (decomp)"}}