{"cas_no": "94317-64-3", "cn_name": "\u6b63\u4e01\u57fa\u786b\u4ee3\u78f7\u9178\u4e09\u80fa", "en_name": ["N-(n-Butyl)thiophosphoric triamide", "Phosphorothioic triamide, N-butyl-", "Phosphorothioic triamide, butyl-", "N-Butylphosphorothioic triamide", "N-(n-Butyl)thiophosphoric triamide", "N-Butylthiophosphoric triamide", "N-(n-Butyl)phosphorothioic triamide", "Agrotain", "Agrotain Plus", "Agrotain DC", "ArmU", "Agrotain Ultra", "Agrotain Prime", "N-(n-Butyl)thiophosphoric acid triamide", "AGROTAIN DRI-MAXX"], "SMILES": "N(P(N)(N)=S)CCCC", "physical_data": {"Molecular Weight": "167.21", "Molecular Formula": "C4H14N3PS", "Melting Point": "54 \u00b0C"}}