{"cas_no": "94344-54-4", "cn_name": "SAPPANCHALCONE", "en_name": ["Sappanchalcone", "2-Propen-1-one, 3-(3,4-dihydroxyphenyl)-1-(4-hydroxy-2-methoxyphenyl)-, (2E)-", "2-Propen-1-one, 3-(3,4-dihydroxyphenyl)-1-(4-hydroxy-2-methoxyphenyl)-, (E)-", "(2E)-3-(3,4-Dihydroxyphenyl)-1-(4-hydroxy-2-methoxyphenyl)-2-propen-1-one", "Sappanchalcone"], "SMILES": "C(C=CC1=CC(O)=C(O)C=C1)(=O)C2=C(OC)C=C(O)C=C2", "physical_data": {"Molecular Weight": "286.28", "Molecular Formula": "C16H14O5", "Melting Point": "198-199 \u00b0C"}}