{"cas_no": "943735-44-2", "cn_name": "2,4-\u4e8c\u6eb4\u567b\u5511-5-\u7532\u9178", "en_name": ["2,5-Dibromo-4-thiazolecarboxylic acid", "4-Thiazolecarboxylic acid, 2,5-dibromo-", "2,5-Dibromo-4-thiazolecarboxylic acid", "2,5-Dibromo-1,3-thiazole-4-carboxylic acid"], "SMILES": "C(O)(=O)C=1N=C(Br)SC1Br", "physical_data": {"Molecular Weight": "286.93", "Molecular Formula": "C4HBr2NO2S", "Melting Point": "84 \u00b0C"}}