{"cas_no": "944-43-4", "cn_name": "4-\u6c28\u57fa-2,3,5,6-\u56db\u6c1f\u82ef\u7532\u9178", "en_name": ["4-Amino-2,3,5,6-tetrafluorobenzoic acid", "Benzoic acid, 4-amino-2,3,5,6-tetrafluoro-", "4-Amino-2,3,5,6-tetrafluorobenzoic acid", "4-Aminotetrafluorobenzoic acid", "NSC 98742"], "SMILES": "C(O)(=O)C1=C(F)C(F)=C(N)C(F)=C1F", "physical_data": {"Molecular Weight": "209.10", "Molecular Formula": "C7H3F4NO2", "Melting Point": "181-181.5 \u00b0C"}}