{"cas_no": "944-73-0", "cn_name": "1,3-\u4e8c\u7532\u57fa\u5c3f\u9178", "en_name": ["1,3-Dimethyluric acid", "1H-Purine-2,6,8(3H)-trione, 7,9-dihydro-1,3-dimethyl-", "Uric acid, 1,3-dimethyl-", "7,9-Dihydro-1,3-dimethyl-1H-purine-2,6,8(3H)-trione", "1,3-Dimethyluric acid", "Oxytheophylline", "Ba 2751", "NSC 95854", "1,3-Dimethyl-7,9-dihydropurine-2,6,8-trione", "1,3-Dimethyl-7,9-dihydro-3H-purine-2,6,8-trione"], "SMILES": "O=C1C2=C(N(C)C(=O)N1C)NC(=O)N2", "physical_data": {"Molecular Weight": "196.16", "Molecular Formula": "C7H8N4O3", "Melting Point": "318-318.5 \u00b0C"}}