{"cas_no": "944129-07-1", "cn_name": "4-\u6c2f-2-\u6c1f-3-\u7532\u6c27\u57fa\u82ef\u787c\u9178", "en_name": ["B-(4-Chloro-2-fluoro-3-methoxyphenyl)boronic acid", "Boronic acid, B-(4-chloro-2-fluoro-3-methoxyphenyl)-", "B-(4-Chloro-2-fluoro-3-methoxyphenyl)boronic acid", "4-Chloro-2-fluoro-3-methoxyphenylboronic acid"], "SMILES": "O(C)C1=C(F)C(B(O)O)=CC=C1Cl", "physical_data": {"Molecular Weight": "204.39", "Molecular Formula": "C7H7BClFO3", "Melting Point": "236-238 \u00b0C"}}