{"cas_no": "94497-51-5", "cn_name": "\u4ed6\u7c73\u5df4\u7f57\u6c40", "en_name": ["Tamibarotene", "Benzoic acid, 4-[[(5,6,7,8-tetrahydro-5,5,8,8-tetramethyl-2-naphthalenyl)amino]carbonyl]-", "4-[[(5,6,7,8-Tetrahydro-5,5,8,8-tetramethyl-2-naphthalenyl)amino]carbonyl]benzoic acid", "Am 80", "Tamibarotene", "Am 80 (pharmaceutical)", "NSC 608000", "Retinoid AM 80", "Amnolake", "4-[(5,6,7,8-Tetrahydro-5,5,8,8-tetramethyl-2-naphthalenyl)carbamoyl]benzoic acid", "RR 110", "SY 1425", "Am 80 (RAR agonist)", "INNO 507", "TM 441", "TOS 80T", "OP 01"], "SMILES": "CC1(C)C=2C(=CC(NC(=O)C3=CC=C(C(O)=O)C=C3)=CC2)C(C)(C)CC1", "physical_data": {"Molecular Weight": "351.44", "Molecular Formula": "C22H25NO3", "Melting Point": "231-232 \u00b0C"}}