{"cas_no": "945-24-4", "cn_name": "2,4-\u4e8c\u6c28\u57fa-6-\u7f9f\u7532\u57fa\u8776\u5576", "en_name": ["2,4-Diamino-6-hydroxymethylpteridine", "6-Pteridinemethanol, 2,4-diamino-", "2,4-Diamino-6-pteridinemethanol", "2,4-Diamino-6-hydroxymethylpteridine", "(2,4-Diaminopteridin-6-yl)methanol"], "SMILES": "NC=1C2=C(N=C(N)N1)N=CC(CO)=N2", "physical_data": {"Molecular Weight": "192.18", "Molecular Formula": "C7H8N6O", "Melting Point": "333-334 \u00b0C (decomp)"}}