{"cas_no": "945-51-7", "cn_name": "\u4e8c\u82ef\u57fa\u4e9a\u781c", "en_name": ["Diphenyl sulfoxide", "Benzene, 1,1\u2032-sulfinylbis-", "Phenyl sulfoxide", "1,1\u2032-Sulfinylbis[benzene]", "Diphenyl sulfoxide", "NSC 630195", "NSC 6779", "Sulfinyldibenzene", "(Benzenesulfinyl)benzene"], "SMILES": "S(=O)(C1=CC=CC=C1)C2=CC=CC=C2", "physical_data": {"Molecular Weight": "202.27", "Molecular Formula": "C12H10OS", "Boiling Point": "340 \u00b0C", "Melting Point": "71.2 \u00b0C"}}