{"cas_no": "945-49-3", "cn_name": "\u73af\u5df1\u57fa(\u82ef\u57fa)\u7532\u9187", "en_name": ["\u03b1-Cyclohexylbenzenemethanol", "Benzenemethanol, \u03b1-cyclohexyl-", "Cyclohexanemethanol, \u03b1-phenyl-", "\u03b1-Cyclohexylbenzenemethanol", "\u03b1-Cyclohexylbenzyl alcohol", "Methanol, cyclohexylphenyl-", "\u03b1-Phenylcyclohexanemethanol", "Cyclohexyl(phenyl)methanol", "NSC 28611"], "SMILES": "C(O)(C1CCCCC1)C2=CC=CC=C2", "physical_data": {"Molecular Weight": "190.28", "Molecular Formula": "C13H18O", "Boiling Point": "168 \u00b0C @ Press: 20 Torr", "Melting Point": "41 \u00b0C"}}