{"cas_no": "945016-63-7", "cn_name": "3-(2-\u6c2f-\u5627\u5576-4-\u57fa)-1H-\u5432\u54da", "en_name": ["3-(2-Chloro-4-pyrimidinyl)-1H-indole", "1H-Indole, 3-(2-chloro-4-pyrimidinyl)-", "3-(2-Chloro-4-pyrimidinyl)-1H-indole"], "SMILES": "ClC=1N=C(C=2C=3C(NC2)=CC=CC3)C=CN1", "physical_data": {"Molecular Weight": "229.66", "Molecular Formula": "C12H8ClN3", "Melting Point": "157-158 \u00b0C (sublm)"}}