{"cas_no": "94525-05-0", "cn_name": "4,4'-[1,4-\u82ef\u57fa\u53cc(\u6c27)]\u53cc[3-(\u4e09\u6c1f\u7532\u57fa)\u82ef\u80fa]", "en_name": ["4,4\u2032-[1,4-Phenylenebis(oxy)]bis[3-(trifluoromethyl)benzenamine]", "Benzenamine, 4,4\u2032-[1,4-phenylenebis(oxy)]bis[3-(trifluoromethyl)-", "4,4\u2032-[1,4-Phenylenebis(oxy)]bis[3-(trifluoromethyl)benzenamine]", "1,4-Bis(4-amino-2-trifluoromethylphenoxy)benzene", "Bis(4-amino-2-trifluoromethylphenyloxyl)benzene", "4,4\u2032-Bis(4-amino-2-trifluoromethylphenoxy)phenyl", "1,4-Bis(2-trifluoromethyl-4-aminophenoxy)benzene", "p-6FAPB"], "SMILES": "C(F)(F)(F)C1=C(OC2=CC=C(OC3=C(C(F)(F)F)C=C(N)C=C3)C=C2)C=CC(N)=C1", "physical_data": {"Molecular Weight": "428.33", "Molecular Formula": "C20H14F6N2O2", "Melting Point": "132-133 \u00b0C"}}