{"cas_no": "94535-50-9", "cn_name": "\u5de6\u8272\u6ee1\u5361\u6797", "en_name": ["(-)-Cromakalim", "2H-1-Benzopyran-6-carbonitrile, 3,4-dihydro-3-hydroxy-2,2-dimethyl-4-(2-oxo-1-pyrrolidinyl)-, (3S,4R)-", "2H-1-Benzopyran-6-carbonitrile, 3,4-dihydro-3-hydroxy-2,2-dimethyl-4-(2-oxo-1-pyrrolidinyl)-, (3S-trans)-", "(3S,4R)-3,4-Dihydro-3-hydroxy-2,2-dimethyl-4-(2-oxo-1-pyrrolidinyl)-2H-1-benzopyran-6-carbonitrile", "(-)-Cromakalim", "BRL 38227", "Lemakalim", "(3S,4R)-(-)-Cromakalim", "Levcromakalim", "Levkromakalim"], "SMILES": "OC1C(C=2C(OC1(C)C)=CC=C(C#N)C2)N3C(=O)CCC3", "physical_data": {"Molecular Weight": "286.33", "Molecular Formula": "C16H18N2O3", "Melting Point": "242-244 \u00b0C"}}