{"cas_no": "945595-80-2", "cn_name": "AMG 900", "en_name": ["N-[4-[[3-(2-Amino-4-pyrimidinyl)-2-pyridinyl]oxy]phenyl]-4-(4-methyl-2-thienyl)-1-phthalazinamine", "1-Phthalazinamine, N-[4-[[3-(2-amino-4-pyrimidinyl)-2-pyridinyl]oxy]phenyl]-4-(4-methyl-2-thienyl)-", "N-[4-[[3-(2-Amino-4-pyrimidinyl)-2-pyridinyl]oxy]phenyl]-4-(4-methyl-2-thienyl)-1-phthalazinamine", "AMG 900"], "SMILES": "N(C=1C2=C(C(=NN1)C=3SC=C(C)C3)C=CC=C2)C4=CC=C(OC5=C(C=CC=N5)C6=NC(N)=NC=C6)C=C4", "physical_data": {"Molecular Weight": "503.58", "Molecular Formula": "C28H21N7OS", "Melting Point": "216 \u00b0C"}}