{"cas_no": "945619-74-9", "cn_name": "\u9ea6\u51ac\u7682\u82f7 D", "en_name": ["Ophiopogonin D", "\u03b2-D-Galactopyranoside, (1\u03b2,3\u03b2,25R)-3-hydroxyspirost-5-en-1-yl O-6-deoxy-\u03b1-L-mannopyranosyl-(1\u21922)-O-[\u03b2-D-xylopyranosyl-(1\u21923)]-6-deoxy-", "(1\u03b2,3\u03b2,25R)-3-Hydroxyspirost-5-en-1-yl O-6-deoxy-\u03b1-L-mannopyranosyl-(1\u21922)-O-[\u03b2-D-xylopyranosyl-(1\u21923)]-6-deoxy-\u03b2-D-galactopyranoside", "Ophiopogonin D", "Deacetylophiopogonin C", "OJV-V", "25(R)-Ruscogenin 1-O-[\u03b1-L-rhamnopyranosyl-(1\u21922)][\u03b2-D-xylopyranosyl-(1\u21923)]-\u03b2-D-fucopyranoside"], "SMILES": "CC12C3C(CC1C4C(CC2)C5(C)C(OC6C(OC7C(O)C(O)C(O)C(C)O7)C(OC8C(O)C(O)C(O)CO8)C(O)C(C)O6)CC(O)CC5=CC4)OC9(C3C)CCC(C)CO9", "physical_data": {"Molecular Weight": "855.02", "Molecular Formula": "C44H70O16", "Melting Point": "263-265 \u00b0C"}}