{"cas_no": "94569-84-3", "cn_name": "2-\u6eb4-5-\u6c1f\u82ef\u7532\u919b", "en_name": ["2-Bromo-5-fluorobenzaldehyde", "Benzaldehyde, 2-bromo-5-fluoro-", "2-Bromo-5-fluorobenzaldehyde", "5-Fluoro-2-bromobenzaldehyde"], "SMILES": "C(=O)C1=C(Br)C=CC(F)=C1", "physical_data": {"Molecular Weight": "203.01", "Molecular Formula": "C7H4BrFO", "Melting Point": "53-55 \u00b0C"}}