{"cas_no": "945761-94-4", "cn_name": "7-\u7898-1H-\u5432\u5511", "en_name": ["7-Iodo-1H-indazole", "1H-Indazole, 7-iodo-", "7-Iodo-1H-indazole"], "SMILES": "IC1=C2C(=CC=C1)C=NN2", "physical_data": {"Molecular Weight": "244.03", "Molecular Formula": "C7H5IN2", "Melting Point": "114.2 \u00b0C"}}