{"cas_no": "94576-68-8", "cn_name": "1-(\u8054\u82ef\u57fa-4-\u57fa)-2-\u7532\u57fa-2-\u5417\u5549\u57fa\u4e19\u70f7-1-\u916e", "en_name": ["1-[1,1\u2032-Biphenyl]-4-yl-2-methyl-2-(4-morpholinyl)-1-propanone", "1-Propanone, 1-[1,1\u2032-biphenyl]-4-yl-2-methyl-2-(4-morpholinyl)-", "Propiophenone, 2-methyl-2-morpholino-4\u2032-phenyl-", "1-[1,1\u2032-Biphenyl]-4-yl-2-methyl-2-(4-morpholinyl)-1-propanone", "API 307", "1-Biphenyl-4-yl-2-methyl-2-morpholin-4-yl-propan-1-one", "1-([1,1\u2032-Biphenyl]-4-yl)-2-methyl-2-morpholinopropan-1-one"], "SMILES": "C(C(=O)C1=CC=C(C=C1)C2=CC=CC=C2)(C)(C)N3CCOCC3", "physical_data": {"Molecular Weight": "309.40", "Molecular Formula": "C20H23NO2", "Melting Point": "120-123 \u00b0C"}}