{"cas_no": "94593-91-6", "cn_name": "\u919a\u9ec4\u9686", "en_name": ["Cinosulfuron", "Benzenesulfonamide, N-[[(4,6-dimethoxy-1,3,5-triazin-2-yl)amino]carbonyl]-2-(2-methoxyethoxy)-", "N-[[(4,6-Dimethoxy-1,3,5-triazin-2-yl)amino]carbonyl]-2-(2-methoxyethoxy)benzenesulfonamide", "CGA 142464", "Cinosulfuron", "Dimetrasulfuron", "Set-off"], "SMILES": "S(NC(NC=1N=C(OC)N=C(OC)N1)=O)(=O)(=O)C2=C(OCCOC)C=CC=C2", "physical_data": {"Molecular Weight": "413.41", "Molecular Formula": "C15H19N5O7S", "Melting Point": "130 \u00b0C"}}