{"cas_no": "946-30-5", "cn_name": "2-\u6c2f-5-\u785d\u57fa\u82ef\u78fa\u9178\u94a0", "en_name": ["Benzenesulfonic acid, 2-chloro-5-nitro-, sodium salt (1:1)", "Benzenesulfonic acid, 2-chloro-5-nitro-, sodium salt (1:1)", "Benzenesulfonic acid, 2-chloro-5-nitro-, sodium salt", "2-Chloro-5-nitrobenzenesulfonic acid sodium salt", "Sodium 2-chloro-5-nitrobenzenesulfonate", "Sodium 6-chloro-3-nitrobenzenesulfonate", "6-Chloro-3-nitrobenzenesulfonic acid sodium salt", "Sodium 1-chloro-4-nitrobenzene-2-sulfonate"], "SMILES": "S(=O)(=O)(O)C1=CC(N(=O)=O)=CC=C1Cl.[Na]", "physical_data": {"Molecular Weight": "", "Molecular Formula": "C6H4ClNO5S.Na", "Melting Point": "&gt;300 \u00b0C"}}