{"cas_no": "946-31-6", "cn_name": "2-\u6c2f-4,6-\u4e8c\u785d\u57fa\u82ef\u915a", "en_name": ["2-Chloro-4,6-dinitrophenol", "Phenol, 2-chloro-4,6-dinitro-", "2-Chloro-4,6-dinitrophenol", "2,4-Dinitro-6-chlorophenol", "6-Chloro-2,4-dinitrophenol", "NSC 3", "NSC 38993", "NSC 6072"], "SMILES": "N(=O)(=O)C1=CC(N(=O)=O)=CC(Cl)=C1O", "physical_data": {"Molecular Weight": "218.55", "Molecular Formula": "C6H3ClN2O5", "Melting Point": "113-114 \u00b0C"}}