{"cas_no": "946-99-6", "cn_name": "4-\u6eb4\u7532\u57fa\u8089\u6842\u9178\u7532\u916f", "en_name": ["Methyl 3-[4-(bromomethyl)phenyl]-2-propenoate", "2-Propenoic acid, 3-[4-(bromomethyl)phenyl]-, methyl ester", "Cinnamic acid, p-(bromomethyl)-, methyl ester", "Methyl 3-[4-(bromomethyl)phenyl]-2-propenoate", "Methyl 4-bromomethylcinnamate", "3-(4-Bromomethylphenyl)acrylic acid methyl ester"], "SMILES": "C(=CC(OC)=O)C1=CC=C(CBr)C=C1", "physical_data": {"Molecular Weight": "255.11", "Molecular Formula": "C11H11BrO2", "Melting Point": "62-63 \u00b0C"}}