{"cas_no": "946-33-8", "cn_name": "2-\u82ef\u7532\u57fa\u73af\u5df1\u916e", "en_name": ["2-Benzylcyclohexanone", "Cyclohexanone, 2-(phenylmethyl)-", "Cyclohexanone, 2-benzyl-", "2-(Phenylmethyl)cyclohexanone", "2-Benzylcyclohexanone", "\u03b1-Benzylcyclohexanone", "(\u00b1)-2-Benzylcyclohexanone", "(\u00b1)-2-Benzyl-1-cyclohexanone", "NSC 149930", "2-Benzylcyclohexan-1-one"], "SMILES": "C(C1C(=O)CCCC1)C2=CC=CC=C2", "physical_data": {"Molecular Weight": "188.27", "Molecular Formula": "C13H16O", "Boiling Point": "165-166 \u00b0C @ Press: 18 Torr", "Melting Point": "76 \u00b0C", "Density": "1.0733 g/cm\u00b3 @ Temp: 0 \u00b0C"}}