{"cas_no": "94608-23-8", "cn_name": "\u987a\u5f0f\u767d\u85dc\u82a6\u9187\u4e09\u7532\u919a", "en_name": ["(Z)-3,5,4\u2032-Trimethoxystilbene", "Benzene, 1,3-dimethoxy-5-[(1Z)-2-(4-methoxyphenyl)ethenyl]-", "Benzene, 1,3-dimethoxy-5-[2-(4-methoxyphenyl)ethenyl]-, (Z)-", "1,3-Dimethoxy-5-[(1Z)-2-(4-methoxyphenyl)ethenyl]benzene", "3,4\u2032,5-Trimethoxy-cis-stilbene", "(Z)-3,5,4\u2032-Trimethoxystilbene", "(Z)-1-(4-Methoxyphenyl)-2-(3,5-dimethoxyphenyl)ethene"], "SMILES": "C(=CC1=CC=C(OC)C=C1)C2=CC(OC)=CC(OC)=C2", "physical_data": {"Molecular Weight": "270.32", "Molecular Formula": "C17H18O3", "Melting Point": "55-57 \u00b0C"}}