{"cas_no": "94610-82-9", "cn_name": "2-\u6c1f-4-\u7532\u6c27\u57fa\u82ef\u8148", "en_name": ["2-Fluoro-4-methoxybenzonitrile", "Benzonitrile, 2-fluoro-4-methoxy-", "2-Fluoro-4-methoxybenzonitrile"], "SMILES": "O(C)C1=CC(F)=C(C#N)C=C1", "physical_data": {"Molecular Weight": "151.14", "Molecular Formula": "C8H6FNO", "Boiling Point": "220-222 \u00b0C"}}