{"cas_no": "94695-50-8", "cn_name": "2,3,4,5-\u56db\u6c1f\u82ef\u7532\u9170\u4e59\u9178\u4e59\u916f", "en_name": ["Ethyl 2,3,4,5-tetrafluoro-\u03b2-oxobenzenepropanoate", "Benzenepropanoic acid, 2,3,4,5-tetrafluoro-\u03b2-oxo-, ethyl ester", "Ethyl 2,3,4,5-tetrafluoro-\u03b2-oxobenzenepropanoate", "Ethyl \u03b1-(2,3,4,5-tetrafluorobenzoyl)acetate", "Ethyl 2,3,4,5-tetrafluorobenzoylacetate", "Ethyl 2,3,4,5-tetrafluoro-\u03b2-oxobenzenepropionate", "Ethyl 2-(2,3,4,5-tetrafluorobenzoyl)acetate", "3-Oxo-3-(2,3,4,5-tetrafluorophenyl)propionic acid ethyl ester"], "SMILES": "C(CC(OCC)=O)(=O)C1=C(F)C(F)=C(F)C(F)=C1", "physical_data": {"Molecular Weight": "264.17", "Molecular Formula": "C11H8F4O3", "Boiling Point": "100 \u00b0C @ Press: 0.1 Torr", "Melting Point": "47-49 \u00b0C"}}