{"cas_no": "94695-48-4", "cn_name": "\u56db\u6c1f\u82ef\u7532\u9170\u6c2f", "en_name": ["2,3,4,5-Tetrafluorobenzoyl chloride", "Benzoyl chloride, 2,3,4,5-tetrafluoro-", "2,3,4,5-Tetrafluorobenzoyl chloride", "2,3,4,5-Tetrafluorobenzoic acid chloride"], "SMILES": "C(Cl)(=O)C1=C(F)C(F)=C(F)C(F)=C1", "physical_data": {"Molecular Weight": "212.53", "Molecular Formula": "C7HClF4O", "Boiling Point": "65-70 \u00b0C @ Press: 15 Torr"}}