{"cas_no": "947-72-8", "cn_name": "9-\u6c2f\u4ee3\u83f2", "en_name": ["9-Chlorophenanthrene", "Phenanthrene, 9-chloro-", "9-Chlorophenanthrene", "10-Chlorophenanthrene", "NSC 8552"], "SMILES": "ClC1=C2C(=C3C(=C1)C=CC=C3)C=CC=C2", "physical_data": {"Molecular Weight": "212.67", "Molecular Formula": "C14H9Cl", "Boiling Point": "370 \u00b0C @ Press: 737 Torr", "Melting Point": "53-53.5 \u00b0C", "Density": "1.2310 g/cm\u00b3 @ Temp: 44 \u00b0C"}}