{"cas_no": "947-42-2", "cn_name": "\u4e8c\u82ef\u57fa\u4e8c\u7f9f\u57fa\u7845\u70f7", "en_name": ["Diphenylsilanediol", "Silanediol, 1,1-diphenyl-", "Silanediol, diphenyl-", "1,1-Diphenylsilanediol", "Diphenylsilanediol", "Dihydroxydiphenylsilane", "Diphenyldihydroxysilane", "TSL 8162", "SX 11", "D 6150", "SX 11 (diol)", "NSC 12561", "LS 4320", "Diphenylsilandiol", "SID 4560.0", "SiSiB PC 8228", "PLF 23650"], "SMILES": "[Si](O)(O)(C1=CC=CC=C1)C2=CC=CC=C2", "physical_data": {"Molecular Weight": "216.31", "Molecular Formula": "C12H12O2Si", "Melting Point": "138-142 \u00b0C (decomp)", "Density": "1.16 g/cm\u00b3"}}