{"cas_no": "947-04-6", "cn_name": "\u6c2e\u6742\u73af\u5341\u4e09\u70f7-2-\u916e", "en_name": ["Laurolactam", "Azacyclotridecan-2-one", "Dodecanoic acid, 12-amino-, lactam", "Laurolactam", "\u03c9-Laurolactam", "\u03c9-Dodecalactam", "Dodecanolactam", "Dodecalactam", "2-Oxododecamethylenimine", "Cyclododecalactam", "Laurinolactam", "Lauryl lactam", "Laurin lactam", "Dodecyllactam", "\u03c9-Dodecanolactam", "1-Aza-2-cyclotridecanone", "12-Aminododecanoic acid lactam", "NSC 77100", "\u03c9-Laurinactam"], "SMILES": "O=C1CCCCCCCCCCCN1", "physical_data": {"Molecular Weight": "197.32", "Molecular Formula": "C12H23NO", "Boiling Point": "193 \u00b0C @ Press: 0.10 Torr", "Melting Point": "150-153 \u00b0C"}}