{"cas_no": "947-84-2", "cn_name": "2-\u82ef\u57fa\u82ef\u7532\u9178", "en_name": ["1-Biphenyl-2-carboxylic acid", "[1,1\u2032-Biphenyl]-2-carboxylic acid", "2-Biphenylcarboxylic acid", "2-Phenylbenzoic acid", "o-Phenylbenzoic acid", "Diphenyl-2-carboxylic acid", "2-Carboxybiphenyl", "NSC 76051", "4\u2032-Isopropylcarbonylbiphenyl-2-carboxylic acid", "1-Biphenyl-2-carboxylic acid"], "SMILES": "C(O)(=O)C1=C(C=CC=C1)C2=CC=CC=C2", "physical_data": {"Molecular Weight": "198.22", "Molecular Formula": "C13H10O2", "Boiling Point": "343.5 \u00b0C", "Melting Point": "114.3 \u00b0C"}}