{"cas_no": "947-91-1", "cn_name": "\u8054\u82ef\u4e59\u919b", "en_name": ["Diphenylacetaldehyde", "Benzeneacetaldehyde, \u03b1-phenyl-", "Acetaldehyde, diphenyl-", "\u03b1-Phenylbenzeneacetaldehyde", "Diphenylacetaldehyde", "2,2-Diphenylacetaldehyde", "\u03b1,\u03b1-Diphenylacetaldehyde", "2,2-Diphenylethanal", "NSC 21645", "2,2-Bisphenyl acetaldehyde"], "SMILES": "C(C=O)(C1=CC=CC=C1)C2=CC=CC=C2", "physical_data": {"Molecular Weight": "196.24", "Molecular Formula": "C14H12O", "Boiling Point": "170-175 \u00b0C @ Press: 15 Torr", "Melting Point": "50 \u00b0C", "Density": "1.1160 g/cm\u00b3 @ Temp: 0 \u00b0C"}}