{"cas_no": "947-95-5", "cn_name": "5-\u6c2f-3-\u7532\u57fa-1-\u82ef\u57fa\u5421\u5511-4-\u7532\u919b", "en_name": ["5-Chloro-3-methyl-1-phenyl-1H-pyrazole-4-carboxaldehyde", "1H-Pyrazole-4-carboxaldehyde, 5-chloro-3-methyl-1-phenyl-", "Pyrazole-4-carboxaldehyde, 5-chloro-3-methyl-1-phenyl-", "5-Chloro-3-methyl-1-phenyl-1H-pyrazole-4-carboxaldehyde", "5-Chloro-4-formyl-3-methyl-1-phenylpyrazole", "1-Phenyl-3-methyl-4-formyl-5-chloropyrazole", "5-Chloro-3-methyl-1-phenylpyrazole-4-carboxaldehyde", "5-Chloro-3-methyl-1-phenyl-1H-pyrazole-4-carbaldehyde"], "SMILES": "ClC=1N(N=C(C)C1C=O)C2=CC=CC=C2", "physical_data": {"Molecular Weight": "220.65", "Molecular Formula": "C11H9ClN2O", "Melting Point": "146-147 \u00b0C"}}