{"cas_no": "947-19-3", "cn_name": "1-\u7f9f\u57fa\u73af\u5df1\u57fa\u82ef\u57fa\u7532\u916e", "en_name": ["1-Hydroxycyclohexyl phenyl ketone", "Methanone, (1-hydroxycyclohexyl)phenyl-", "Ketone, 1-hydroxycyclohexyl phenyl", "(1-Hydroxycyclohexyl)phenylmethanone", "1-Benzoyl-1-hydroxycyclohexane", "Irgacure G 17-1184", "1-Benzoylcyclohexanol", "1-Hydroxycyclohexyl phenyl ketone", "Irgacure 184", "\u03b1-Hydroxycyclohexyl phenyl ketone", "\u03b1-Hydroxy-\u03b1-cyclohexyl phenyl ketone", "Irgacure 181", "Irgacure I 184", "I 184", "Chivacure 184", "SarCure SR 1122", "NSC 401908", "IRG 184", "Darocur 184C", "Runtecure 1104", "SR 1122", "1-Hydroxy-1-cyclohexyl phenyl ketone", "IC 184", "Irgacure 184D", "Esacure KS 300", "KS 300", "Micure CP 4", "Irgacure 183", "IHT-PI 184", "Additol CPK", "CPK", "Luna 200", "HCPK", "Photoinitiator 184", "PI 184", "Photocure 184", "Huatai 184", "Doublecure 184", "Initiator 1104", "184D", "Chemcure 481", "X-Cure 184", "Irgacure 189", "I 189", "Speedcure 184", "Suncure 84", "Irgacure 1104", "Genocure CPK", "Omnirad 481", "Ciba 184", "JR 184", "UV 184", "SB-PI 714", "JRCure 1104", "Irgacure 1841", "Boxing 184", "Lunacure 200", "BASF 184", "JRcure 184", "Daido UV-Cure 174", "Omnirad 184", "MV 5001", "184S", "Ryoji 184", "Gencure 184", "Darocur 184", "OR 184", "IGM 184", "Omnirad 184D", "RG 184", "Photoinitiator 1104", "Om 184"], "SMILES": "C(=O)(C1(O)CCCCC1)C2=CC=CC=C2", "physical_data": {"Molecular Weight": "204.26", "Molecular Formula": "C13H16O2", "Boiling Point": "140 \u00b0C @ Press: 0.1 Torr", "Melting Point": "47-49 \u00b0C"}}