{"cas_no": "947-73-9", "cn_name": "2-\u83f2\u80fa", "en_name": ["9-Aminophenanthrene", "9-Phenanthrenamine", "9-Phenanthrylamine", "9-Aminophenanthrene", "(Phenanthren-9-yl)amine"], "SMILES": "NC1=C2C(=C3C(=C1)C=CC=C3)C=CC=C2", "physical_data": {"Molecular Weight": "193.24", "Molecular Formula": "C14H11N", "Melting Point": "138.3 \u00b0C"}}