{"cas_no": "947-62-6", "cn_name": "2-\u7532\u6c27\u57fa-1-\u8418\u7532\u9178", "en_name": ["2-Methoxy-1-naphthalenecarboxylic acid", "1-Naphthalenecarboxylic acid, 2-methoxy-", "1-Naphthoic acid, 2-methoxy-", "2-Methoxy-1-naphthalenecarboxylic acid", "2-Methoxy-1-naphthoic acid"], "SMILES": "C(O)(=O)C=1C2=C(C=CC1OC)C=CC=C2", "physical_data": {"Molecular Weight": "202.21", "Molecular Formula": "C12H10O3", "Melting Point": "176 \u00b0C"}}