{"cas_no": "94718-79-3", "cn_name": "2-\u6eb4\u82ef\u80fa\u76d0\u9178\u76d0", "en_name": ["Benzenamine, 2-bromo-, hydrochloride (1:1)", "Benzenamine, 2-bromo-, hydrochloride (1:1)", "Benzenamine, 2-bromo-, hydrochloride", "o-Bromoaniline hydrochloride", "2-Bromoaniline hydrochloride", "2-Bromobenzenamine hydrochloride"], "SMILES": "BrC1=C(N)C=CC=C1.Cl", "physical_data": {"Molecular Weight": "", "Molecular Formula": "C6H6BrN.ClH", "Melting Point": "217-220 \u00b0C (decomp)"}}