{"cas_no": "94749-08-3", "cn_name": "\u6614\u7f8e\u9178\u6c99\u7f8e\u7279\u7f57", "en_name": ["Salmeterol xinafoate", "2-Naphthalenecarboxylic acid, 1-hydroxy-, compd. with 4-hydroxy-\u03b11-[[[6-(4-phenylbutoxy)hexyl]amino]methyl]-1,3-benzenedimethanol (1:1)", "2-Naphthalenecarboxylic acid, 1-hydroxy-, compd. with (\u00b1)-4-hydroxy-\u03b11-[[[6-(4-phenylbutoxy)hexyl]amino]methyl]-1,3-benzenedimethanol (1:1)", "1,3-Benzenedimethanol, 4-hydroxy-\u03b11-[[[6-(4-phenylbutoxy)hexyl]amino]methyl]-, (\u00b1)-, 1-hydroxy-2-naphthalenecarboxylate (salt)", "1,3-Benzenedimethanol, 4-hydroxy-\u03b11-[[[6-(4-phenylbutoxy)hexyl]amino]methyl]-, 1-hydroxy-2-naphthalenecarboxylate (salt)", "GR 33343G", "Salmeterol xinafoate", "SN 408", "Salmeterol hydroxynaphthoate", "Siduomi", "Serevent", "GR 3343G", "Salmetedur", "Arial", "Serevent Diskus"], "SMILES": "OC=1C2=C(C=CC1C(O)=O)C=CC=C2.C(CNCCCCCCOCCCCC1=CC=CC=C1)(O)C2=CC(CO)=C(O)C=C2", "physical_data": {"Molecular Weight": "", "Molecular Formula": "C25H37NO4.C11H8O3", "Melting Point": "137-138 \u00b0C"}}