{"cas_no": "948-65-2", "cn_name": "2-\u82ef\u57fa\u5432\u54da", "en_name": ["2-Phenylindole", "1H-Indole, 2-phenyl-", "Indole, 2-phenyl-", "2-Phenyl-1H-indole", "\u03b1-Phenylindole", "2-Phenylindole", "Stabilizer I", "NSC 15776"], "SMILES": "C1(=CC=2C(N1)=CC=CC2)C3=CC=CC=C3", "physical_data": {"Molecular Weight": "193.24", "Molecular Formula": "C14H11N", "Boiling Point": "195-200 \u00b0C @ Press: 6 Torr", "Melting Point": "190.5 \u00b0C"}}