{"cas_no": "948-03-8", "cn_name": "\u7532\u57fa-1-\u7f9f\u57fa-2-\u8418\u7532\u9178\u76d0", "en_name": ["2-Naphthalenecarboxylic acid, 1-hydroxy-, methyl ester", "2-Naphthalenecarboxylic acid, 1-hydroxy-, methyl ester", "2-Naphthoic acid, 1-hydroxy-, methyl ester", "Methyl 1-hydroxy-2-naphthoate", "1-Hydroxy-2-carbomethoxynaphthalene", "2-Methoxycarbonyl-1-naphthol", "Methyl 1-hydroxy-2-naphthalenecarboxylate", "1-Hydroxy-2-naphthoic acid methyl ester"], "SMILES": "OC=1C2=C(C=CC1C(OC)=O)C=CC=C2", "physical_data": {"Molecular Weight": "202.21", "Molecular Formula": "C12H10O3", "Melting Point": "78 \u00b0C"}}