{"cas_no": "94805-82-0", "cn_name": "\u7518\u8349\u9999\u8c46\u7d20", "en_name": ["Glycycoumarin", "2H-1-Benzopyran-2-one, 3-(2,4-dihydroxyphenyl)-7-hydroxy-5-methoxy-6-(3-methyl-2-buten-1-yl)-", "2H-1-Benzopyran-2-one, 3-(2,4-dihydroxyphenyl)-7-hydroxy-5-methoxy-6-(3-methyl-2-butenyl)-", "3-(2,4-Dihydroxyphenyl)-7-hydroxy-5-methoxy-6-(3-methyl-2-buten-1-yl)-2H-1-benzopyran-2-one", "Glycycoumarin"], "SMILES": "O(C)C1=C2C(OC(=O)C(=C2)C3=C(O)C=C(O)C=C3)=CC(O)=C1CC=C(C)C", "physical_data": {"Molecular Weight": "368.38", "Molecular Formula": "C21H20O6", "Melting Point": "243.5-244.5 \u00b0C"}}