{"cas_no": "94805-52-4", "cn_name": "3-\u6c30\u57fa-6-\u7f9f\u57fa\u5421\u5576", "en_name": ["1,6-Dihydro-6-oxo-3-pyridinecarbonitrile", "3-Pyridinecarbonitrile, 1,6-dihydro-6-oxo-", "1,6-Dihydro-6-oxo-3-pyridinecarbonitrile", "5-Cyano-2-pyridone", "5-Cyano-2-pyridinol", "3-Cyano-6-hydroxypyridine", "6-Oxo-1,6-dihydro-3-pyridinecarbonitrile", "6-Hydroxypyridine-3-carbonitrile", "6-Hydroxynicotinonitrile", "2-Hydroxy-5-cyanopyridine"], "SMILES": "C(#N)C=1C=CC(=O)NC1", "physical_data": {"Molecular Weight": "120.11", "Molecular Formula": "C6H4N2O", "Melting Point": "252-253 \u00b0C"}}