{"cas_no": "949-69-9", "cn_name": "1-\u82c4\u57fa-4-\u54cc\u5576\u916e\u809f", "en_name": ["1-(Phenylmethyl)-4-piperidinone oxime", "4-Piperidinone, 1-(phenylmethyl)-, oxime", "4-Piperidone, 1-benzyl-, oxime", "1-(Phenylmethyl)-4-piperidinone oxime", "1-Benzyl-4-piperidone oxime", "1-Benzyl-4-piperidinone oxime", "N-Benzyl-4-piperidone oxime"], "SMILES": "C(N1CCC(=NO)CC1)C2=CC=CC=C2", "physical_data": {"Molecular Weight": "204.27", "Molecular Formula": "C12H16N2O", "Melting Point": "126-128 \u00b0C"}}