{"cas_no": "949-42-8", "cn_name": "2-\u7532\u57fa-4,6-\u53cc(\u4e09\u6c2f\u4ee3\u7532\u57fa)-1,3,5-\u4e09\u55ea", "en_name": ["2-Methyl-4,6-bis(trichloromethyl)-1,3,5-triazine", "1,3,5-Triazine, 2-methyl-4,6-bis(trichloromethyl)-", "s-Triazine, 2-methyl-4,6-bis(trichloromethyl)-", "2-Methyl-4,6-bis(trichloromethyl)-1,3,5-triazine", "2-Methyl-4,6-bis(trichloromethyl)-s-triazine", "2,4-Bis(trichloromethyl)-6-methyl-s-triazine", "NSC 409354", "2,4-Bis(trichloromethyl)-6-methyl-1,3,5-triazine"], "SMILES": "C(Cl)(Cl)(Cl)C=1N=C(C(Cl)(Cl)Cl)N=C(C)N1", "physical_data": {"Molecular Weight": "329.83", "Molecular Formula": "C6H3Cl6N3", "Boiling Point": "185-186 \u00b0C @ Press: 7 Torr", "Melting Point": "94.3-95.5 \u00b0C"}}