{"cas_no": "949-90-6", "cn_name": "N-\u82c4\u6c27\u7fb0\u57fa\u7518\u6c28\u9170\u80fa", "en_name": ["Phenylmethyl N-(2-amino-2-oxoethyl)carbamate", "Carbamic acid, N-(2-amino-2-oxoethyl)-, phenylmethyl ester", "Carbamic acid, (carbamoylmethyl)-, benzyl ester", "Carbamic acid, (2-amino-2-oxoethyl)-, phenylmethyl ester", "Phenylmethyl N-(2-amino-2-oxoethyl)carbamate", "Carbobenzoxyglycinamide", "N-Benzyloxycarbonylglycinamide", "Benzyloxycarbonylglycinamide", "N-Benzyloxycarbonylglycine amide", "NSC 88477", "Cbz-glycinamide", "Benzyl (2-amino-2-oxoethyl)carbamate"], "SMILES": "C(OC(NCC(N)=O)=O)C1=CC=CC=C1", "physical_data": {"Molecular Weight": "208.21", "Molecular Formula": "C10H12N2O3", "Melting Point": "144 \u00b0C"}}