{"cas_no": "949-36-0", "cn_name": "\u76d0\u9178\u5f02\u4e19\u80be\u4e0a\u817a\u7d20", "en_name": ["(\u00b1)-Isoproterenol hydrochloride", "1,2-Benzenediol, 4-[1-hydroxy-2-[(1-methylethyl)amino]ethyl]-, hydrochloride (1:1)", "Benzyl alcohol, 3,4-dihydroxy-\u03b1-[(isopropylamino)methyl]-, hydrochloride", "1,2-Benzenediol, 4-[1-hydroxy-2-[(1-methylethyl)amino]ethyl]-, hydrochloride", "Protocatechuyl alcohol, \u03b1-(isopropylaminomethyl)-, hydrochloride", "\u03b1-(Isopropylaminomethyl)-3,4-dihydroxybenzyl alcohol hydrochloride", "3,4-Dihydroxy-\u03b1-(isopropylaminomethyl)benzyl alcohol hydrochloride", "Isoprenaline hydrochloride", "Isoproterenol hydrochloride", "Isuprel", "Isopropylarterenol hydrochloride", "Euspiran", "Isadrine", "Isoprenaline chloride", "Saventrine", "Proternol", "1-(3,4-Dihydroxyphenyl)-2-(isopropylamino)ethanol hydrochloride", "(\u00b1)-Isoprenaline hydrochloride", "dl-Isopropylnoradrenaline hydrochloride", "(\u00b1)-Isopropylnoradrenaline hydrochloride", "dl-Isopropylnorepinephrine hydrochloride", "dl-Isoproterenol hydrochloride", "(\u00b1)-Isoproterenol hydrochloride", "dl-Isoprenaline hydrochloride", "dl-Isadrine hydrochloride", "DL-Isoproterenol hydrochloride", "DL-Isoprenaline hydrochloride", "Asthpul", "Vapo-Iso", "Suscardia", "Mistarel", "Isomenyl", "Aerolone", "Aerotrol", "Isovon", "NSC 37745", "NSC 89747", "Isoprel"], "SMILES": "C(CNC(C)C)(O)C1=CC(O)=C(O)C=C1.Cl", "physical_data": {"Molecular Weight": "", "Molecular Formula": "C11H17NO3.ClH", "Melting Point": "170-172 \u00b0C (decomp)"}}