{"cas_no": "949-67-7", "cn_name": "L-\u916a\u6c28\u9178\u4e59\u916f", "en_name": ["L-Tyrosine ethyl ester", "L-Tyrosine, ethyl ester", "Tyrosine, ethyl ester, L-", "L-Tyrosine ethyl ester", "(S)-Tyrosine ethyl ester", "Ethyl L-tyrosinate", "NSC 519993", "Ethyl (S)-2-amino-3-(4-hydroxyphenyl)propionate", "Ethyl (2S)-2-amino-3-(4-hydroxyphenyl)propanoate"], "SMILES": "C(C(C(OCC)=O)N)C1=CC=C(O)C=C1", "physical_data": {"Molecular Weight": "209.24", "Molecular Formula": "C11H15NO3", "Melting Point": "105 \u00b0C"}}