{"cas_no": "949-99-5", "cn_name": "4-\u785d\u57fa-L-\u82ef\u4e19\u6c28\u9178", "en_name": ["p-Nitrophenylalanine", "L-Phenylalanine, 4-nitro-", "Alanine, 3-(p-nitrophenyl)-, L-", "4-Nitro-L-phenylalanine", "p-Nitro-L-phenylalanine", "3-(4-Nitrophenyl)-L-alanine", "L-p-Nitrophenylalanine", "p-Nitrophenylalanine", "L-4-Nitrophenylalanine", "(S)-4-Nitrophenylalanine", "NSC 152925", "(2S)-2-Azaniumyl-3-(4-nitrophenyl)propanoate", "(2S)-2-Amino-3-(4-nitrophenyl)propanoic acid", "(S)-2-Amino-3-(4-nitrophenyl)propanoic acid"], "SMILES": "C(C(C(O)=O)N)C1=CC=C(N(=O)=O)C=C1", "physical_data": {"Molecular Weight": "210.19", "Molecular Formula": "C9H10N2O4", "Melting Point": "240-245 \u00b0C (decomp)"}}