{"cas_no": "94944-70-4", "cn_name": "1-[5-[(1R,2S,3R)-1,2,3,4-\u56db\u7f9f\u57fa\u4e01\u57fa]-1H-\u54aa\u5511-2-\u57fa]\u4e59\u916e", "en_name": ["1-[5-[(1R,2S,3R)-1,2,3,4-Tetrahydroxybutyl]-1H-imidazol-2-yl]ethanone", "Ethanone, 1-[5-[(1R,2S,3R)-1,2,3,4-tetrahydroxybutyl]-1H-imidazol-2-yl]-", "Ethanone, 1-[4-(1,2,3,4-tetrahydroxybutyl)-1H-imidazol-2-yl]-, [1R-(1R*,2S*,3R*)]-", "1-[5-[(1R,2S,3R)-1,2,3,4-Tetrahydroxybutyl]-1H-imidazol-2-yl]ethanone", "THI"], "SMILES": "C(C(C(CO)O)O)(O)C=1NC(C(C)=O)=NC1", "physical_data": {"Molecular Weight": "230.22", "Molecular Formula": "C9H14N2O5", "Melting Point": "233-235 \u00b0C"}}