{"cas_no": "94945-27-4", "cn_name": "\u6eb6\u5242\u9ec4 10GN", "en_name": ["Macrolex yellow", "2H-1-Benzopyran-2-one, 3-(5-chloro-2-benzoxazolyl)-7-(diethylamino)-", "3-(5-Chloro-2-benzoxazolyl)-7-(diethylamino)-2H-1-benzopyran-2-one", "Intrasil Brilliant Yellow 10GF", "Macrolex Fluorescent Yellow 10GN", "C.I. Disperse Yellow 232", "Disperse Yellow 232", "C.I. 55165", "Macrolex 10GN", "Solvent Yellow 160:1", "C.I. Solvent Yellow 160:1", "Macrolex fluorescent yellow", "Macrolex Fl Yellow 10GN", "Macrolex yellow", "Solvent Yellow GK"], "SMILES": "O=C1C(C=2OC=3C(N2)=CC(Cl)=CC3)=CC=4C(O1)=CC(N(CC)CC)=CC4", "physical_data": {"Molecular Weight": "368.81", "Molecular Formula": "C20H17ClN2O3", "Melting Point": "195-196 \u00b0C"}}