{"cas_no": "94985-27-0", "cn_name": "1-\u82c4\u57fa\u6c2e\u6742\u73af\u4e01\u70f7-3-\u7532\u9178", "en_name": ["1-(Phenylmethyl)-3-azetidinecarboxylic acid", "3-Azetidinecarboxylic acid, 1-(phenylmethyl)-", "1-(Phenylmethyl)-3-azetidinecarboxylic acid", "1-Benzyl-3-azetidinecarboxylic acid", "N-Benzylazetidine-3-carboxylic acid"], "SMILES": "C(N1CC(C(O)=O)C1)C2=CC=CC=C2", "physical_data": {"Molecular Weight": "191.23", "Molecular Formula": "C11H13NO2", "Melting Point": "132 \u00b0C"}}