{"cas_no": "95-05-6", "cn_name": "\u8212\u975e\u4ed1", "en_name": ["Sulfiram", "Thiodicarbonic diamide ([(H2N)C(S)]2S), N,N,N\u2032,N\u2032-tetraethyl-", "Sulfide, bis(diethylthiocarbamoyl)", "Thiodicarbonic diamide ([(H2N)C(S)]2S), tetraethyl-", "Thiuram monosulfide, tetraethyl-", "Bis(N,N-diethylthiocarbamoyl) sulfide", "Bis(diethylthiocarbamyl) sulfide", "Tetmos", "Tetraethylthiuram monosulfide", "Methanethioamide, 1,1\u2032-thiobis[N,N-diethyl-", "Sulfide, bis[(diethylamino)thioxomethyl]", "Carbamodithioic acid, diethyl-, anhydrosulfide", "Sulfirame", "Tetmosol", "Bis(diethylthiocarbamoyl) sulfide", "Kutka", "Monosulfiram", "Sanigal", "Sarcocide B", "Sulfiramum", "Tetrucid", "Sulfiram", "TTMS", "Kutkasin", "NSC 36731"], "SMILES": "N(C(SC(N(CC)CC)=S)=S)(CC)CC", "physical_data": {"Molecular Weight": "264.47", "Molecular Formula": "C10H20N2S3", "Melting Point": "31 \u00b0C", "Density": "1.150 g/cm\u00b3 @ Temp: 20 \u00b0C"}}