{"cas_no": "95-02-3", "cn_name": "4-\u6c28\u57fa-2-\u7532\u57fa-5-(\u6c28\u7532\u57fa)\u5627\u5576", "en_name": ["4-Amino-2-methyl-5-pyrimidinemethanamine", "5-Pyrimidinemethanamine, 4-amino-2-methyl-", "Pyrimidine, 4-amino-5-(aminomethyl)-2-methyl-", "4-Amino-2-methyl-5-pyrimidinemethanamine", "4-Amino-5-aminomethyl-2-methylpyrimidine", "2-Methyl-4-amino-5-(aminomethyl)pyrimidine", "5-(Aminomethyl)-4-amino-2-methylpyrimidine", "Grewe diamine", "5-(Aminomethyl)-2-methylpyrimidin-4-amine"], "SMILES": "C(N)C=1C(N)=NC(C)=NC1", "physical_data": {"Molecular Weight": "138.17", "Molecular Formula": "C6H10N4", "Boiling Point": "121-125 \u00b0C", "Melting Point": "262 \u00b0C"}}