{"cas_no": "95-06-7", "cn_name": "\u8349\u514b\u6b7b", "en_name": ["Sulfallate", "Carbamodithioic acid, N,N-diethyl-, 2-chloro-2-propen-1-yl ester", "Carbamic acid, diethyldithio-, 2-chloroallyl ester", "Carbamodithioic acid, diethyl-, 2-chloro-2-propenyl ester", "CP 4,742", "Chlorallyl diethyldithiocarbamate", "2-Chloroallyl N,N-diethyldithiocarbamate", "2-Chloroallyl diethyldithiocarbamate", "Diethyldithiocarbamic acid 2-chloroallyl ester", "Vegadex", "CDEC", "Sulfallate", "Thioallate", "Vegadex super", "2-Chlorallyl diethyldithiocarbamate", "NSC 16085", "2-Chloroallyl diethylcarbamodithioate"], "SMILES": "N(C(SCC(=C)Cl)=S)(CC)CC", "physical_data": {"Molecular Weight": "223.79", "Molecular Formula": "C8H14ClNS2", "Boiling Point": "128-130 \u00b0C", "Density": "1.088 g/cm\u00b3 @ Temp: 25 \u00b0C"}}