{"cas_no": "95-01-2", "cn_name": "2,4-\u4e8c\u7f9f\u57fa\u82ef\u7532\u919b", "en_name": ["2,4-Dihydroxybenzaldehyde", "Benzaldehyde, 2,4-dihydroxy-", "\u03b2-Resorcylaldehyde", "2,4-Dihydroxybenzaldehyde", "2,4-Dihydroxybenzenecarbonal", "\u03b2-Resorcylic aldehyde", "4-Hydroxysalicylaldehyde", "\u03b2-Resorcaldehyde", "\u03b2-Resorcinaldehyde", "4-Formylresorcinol", "6-Formylresorcinol", "NC 012", "2,4-Dihydroxysalicylaldehyde", "NSC 8690", "2,4-Dihydroxybezaldehyde", "4-Formylbenzene-1,3-diol"], "SMILES": "C(=O)C1=C(O)C=C(O)C=C1", "physical_data": {"Molecular Weight": "138.12", "Molecular Formula": "C7H6O3", "Boiling Point": "85-90 \u00b0C @ Press: 0.03 Torr", "Melting Point": "135 \u00b0C"}}