{"cas_no": "95-00-1", "cn_name": "2,4-\u4e8c\u6c2f\u82ef\u7532\u80fa", "en_name": ["2,4-Dichlorobenzenemethanamine", "Benzenemethanamine, 2,4-dichloro-", "Benzylamine, 2,4-dichloro-", "2,4-Dichlorobenzenemethanamine", "2,4-Dichlorobenzylamine", "o,p-Dichlorobenzylamine", "((2,4-Dichlorophenyl)methyl)amine", "NSC 25064", "1-(2,4-Dichlorophenyl)methanamine", "(2,4-Dichlorophenyl)methanamine"], "SMILES": "C(N)C1=C(Cl)C=C(Cl)C=C1", "physical_data": {"Molecular Weight": "176.04", "Molecular Formula": "C7H7Cl2N", "Boiling Point": "135 \u00b0C @ Press: 15 Torr"}}