{"cas_no": "95-03-4", "cn_name": "4-\u6c2f-2-\u6c28\u57fa\u82ef\u7532\u919a", "en_name": ["5-Chloro-2-methoxyaniline", "Benzenamine, 5-chloro-2-methoxy-", "o-Anisidine, 5-chloro-", "5-Chloro-2-methoxybenzenamine", "5-Chloro-o-anisidine", "C.I. 37120, free base", "Tulabase Fast Red R", "Tulabase Fast Red RC", "5-Chloro-2-methoxyaniline", "2-Amino-4-chloro-1-methoxybenzene", "2-Methoxy-5-chloroaniline", "1-Amino-5-chloro-2-methoxybenzene", "2-Amino-4-chloroanisole", "4-Chloro-2-aminoanisole", "NSC 6114", "(5-Chloro-2-methoxyphenyl)amine"], "SMILES": "O(C)C1=C(N)C=C(Cl)C=C1", "physical_data": {"Molecular Weight": "157.60", "Molecular Formula": "C7H8ClNO", "Melting Point": "45-46 \u00b0C"}}