{"cas_no": "95-14-7", "cn_name": "\u82ef\u5e76\u4e09\u6c2e\u5511", "en_name": ["1H-Benzotriazole", "1H-Benzotriazole", "Azimidobenzene", "Aziminobenzene", "1,2-Aminoazophenylene", "Benzene azimide", "Benzisotriazole", "1,2,3-Benzotriazole", "2,3-Diazaindole", "1,2,3-Triazaindene", "1,2,3-Triaza-1H-indene", "1H-1,2,3-Benzotriazole", "Cobratec 99", "BT 120", "CVI", "Entek", "1,2,3-1H-Benzotriazole", "Cobratec 35G", "ISK 3", "Irgastab I 489", "D 32-108", "Verzone Crystal", "BTA", "BT 120 (lubricant additive)", "Seetec BT", "NSC 3058", "Seetec BT-R", "C.V.I. Liquid", "M 318", "Kemitec TT", "Rusmin R", "BLS 1326", "HY 2", "B 0094", "LT 02", "Verzone Crystal 120", "T 706", "Benzotriazole R", "Miracle HP 16", "TH-BTA", "1H-Benzo[d]-1,2,3-triazole", "Preventol BZT", "Fujilite BT 20NM", "BT 120SG", "Irgamet BTZ", "RC 8239", "Kemitec BT-P", "Wintrol B-FG", "Ascotoran L"], "SMILES": "C1=2C(N=NN1)=CC=CC2", "physical_data": {"Molecular Weight": "119.12", "Molecular Formula": "C6H5N3", "Boiling Point": "159 \u00b0C @ Press: 2 Torr", "Melting Point": "98.5 \u00b0C", "Density": "1.36 g/cm\u00b3"}}