{"cas_no": "95-12-5", "cn_name": "5-\u964d\u51b0\u7247\u70ef-2-\u7532\u9187", "en_name": ["Bicyclo[2.2.1]hept-5-ene-2-methanol", "Bicyclo[2.2.1]hept-5-ene-2-methanol", "5-Norbornene-2-methanol", "Cyclol", "2-Hydroxymethyl-5-norbornene", "5-(Hydroxymethyl)bicyclo[2.2.1]hept-2-ene", "2-(Hydroxymethyl)bicyclo[2.2.1]hept-5-ene", "5-Hydroxymethyl-2-norbornene", "NSC 403110", "Norbornene-5-methyl alcohol", "Bicyclo[2.2.1]hept-5-en-2-ylmethanol", "[Bicyclo[2.2.1]hept-5-en-2-yl]methanol", "2-Norbornen-5-methanol"], "SMILES": "C(O)C1C2CC(C1)C=C2", "physical_data": {"Molecular Weight": "124.18", "Molecular Formula": "C8H12O", "Boiling Point": "92-95 \u00b0C @ Press: 13 Torr", "Density": "1.028 g/cm\u00b3 @ Temp: 20 \u00b0C"}}