{"cas_no": "95-16-9", "cn_name": "\u82ef\u5e76\u567b\u5511", "en_name": ["Benzothiazole", "Benzothiazole", "Benzosulfonazole", "1-Thia-3-azaindene", "Vangard BT", "NSC 8040", "Benzo[d]thiazole", "1,3-Benzothiazole"], "SMILES": "C1=2C(SC=N1)=CC=CC2", "physical_data": {"Molecular Weight": "135.19", "Molecular Formula": "C7H5NS", "Boiling Point": "227-228 \u00b0C @ Press: 765 Torr", "Melting Point": "2 \u00b0C", "Density": "1.246 g/cm\u00b3 @ Temp: 20 \u00b0C"}}