{"cas_no": "95-11-4", "cn_name": "2-\u6c30\u57fa-5-\u964d\u51b0\u7247\u70ef", "en_name": ["Bicyclo[2.2.1]hept-5-ene-2-carbonitrile", "Bicyclo[2.2.1]hept-5-ene-2-carbonitrile", "5-Norbornene-2-carbonitrile", "5-Cyanobicyclo[2.2.1]hept-2-ene", "5-Cyano-2-norbornene", "2-Cyano-5-norbornene", "2-Cyanobicyclo[2.2.1]hept-5-ene", "Bicyclo[2.2.1]-5-hepten-2-carbonitrile", "Norbornenecarbonitrile", "5-Cyanonorbornene"], "SMILES": "C(#N)C1C2CC(C1)C=C2", "physical_data": {"Molecular Weight": "119.16", "Molecular Formula": "C8H9N", "Boiling Point": "80-85 \u00b0C @ Press: 11 Torr", "Melting Point": "13 \u00b0C", "Density": "1.0066 g/cm\u00b3 @ Temp: 25 \u00b0C"}}