{"cas_no": "95-17-0", "cn_name": "5-\u964d\u51b0\u7247\u70ef-2-\u7532\u9170\u80fa", "en_name": ["Bicyclo[2.2.1]hept-5-ene-2-carboxamide", "Bicyclo[2.2.1]hept-5-ene-2-carboxamide", "5-Norbornene-2-carboxamide"], "SMILES": "C(N)(=O)C1C2CC(C1)C=C2", "physical_data": {"Molecular Weight": "137.18", "Molecular Formula": "C8H11NO", "Melting Point": "160-171 \u00b0C"}}