{"cas_no": "95-15-8", "cn_name": "\u82ef\u5e76\u567b\u5429", "en_name": ["Benzo[b]thiophene", "Benzo[b]thiophene", "Benzothiofuran", "1-Thiaindene", "Thianaphthene", "Thionaphthene", "Benzothiophene", "2,3-Benzothiophene", "Benzothiophen", "1-Benzothiophene", "Thianaphthen", "NSC 47196"], "SMILES": "C1=2C(SC=C1)=CC=CC2", "physical_data": {"Molecular Weight": "134.20", "Molecular Formula": "C8H6S", "Boiling Point": "221 \u00b0C", "Melting Point": "32 \u00b0C", "Density": "1.4250 g/cm\u00b3 @ Temp: 37 \u00b0C"}}