{"cas_no": "95-13-6", "cn_name": "\u831a", "en_name": ["Indene", "1H-Indene", "Indene", "Indonaphthene", "Inden", "NSC 9270"], "SMILES": "C1=2C(C=CC1)=CC=CC2", "physical_data": {"Molecular Weight": "116.16", "Molecular Formula": "C9H8", "Boiling Point": "181.6 \u00b0C @ Press: 760 Torr", "Melting Point": "-1.8 \u00b0C", "Density": "0.9968 g/cm\u00b3 @ Temp: 20 \u00b0C"}}