{"cas_no": "95-25-0", "cn_name": "\u6c2f\u5511\u6c99\u5b97", "en_name": ["Chlorzoxazone", "2(3H)-Benzoxazolone, 5-chloro-", "2-Benzoxazolinone, 5-chloro-", "5-Chloro-2(3H)-benzoxazolone", "5-Chlorobenzoxazolidone", "5-Chloro-2-benzoxazolinone", "Chloroxazone", "Chlorzoxazone", "Paraflex", "Solaxin", "Myoflexine", "5-Chlorobenzoxazolone", "5-Chloro-2-benzoxazolone", "5-Chloro-2-benzoxazolol", "5-Chloro-2-hydroxybenzoxazole", "2-Hydroxy-5-chlorobenzoxazole", "Biomioran", "Mioran", "Miotran", "Myoflexin", "Neoflex", "Escoflex", "Pathorysin", "Parafon Forte DSC", "NSC 26189", "5-Chloro-2-oxo-3H-benzoxazole", "5-Chloro-3H-benzoxazol-2-one", "5-Chloro-1,3-benzoxazol-2(3H)-one", "Parfon-forte", "Cipzox", "MeSH ID: D002753"], "SMILES": "O=C1OC=2C(N1)=CC(Cl)=CC2", "physical_data": {"Molecular Weight": "169.57", "Molecular Formula": "C7H4ClNO2", "Melting Point": "191.5 \u00b0C"}}