{"cas_no": "95-23-8", "cn_name": "5-\u6c28\u57fa\u82ef\u5e76\u54aa\u5511\u916e", "en_name": ["5-Amino-2-benzimidazolinone", "2H-Benzimidazol-2-one, 5-amino-1,3-dihydro-", "2-Benzimidazolinone, 5-amino-", "5-Amino-1,3-dihydro-2H-benzimidazol-2-one", "5-Amino-2(3H)-benzimidazolone", "5-Amino-2-benzimidazolinone", "5-Amino-2-hydroxybenzimidazole", "2-Hydroxy-5-aminobenzimidazole", "5-Amino-2-oxo-2,3-dihydro-1H-benzimidazole", "5-Amino-1,3-dihydrobenzimidazol-2-one", "5-Amino-1H-benzo[d]imidazol-2(3H)-one", "5-Amino-1H-benzimidazol-2(3H)-one", "2-Oxo-2,3-dihydro-1H-benzimidazol-5-amine", "5-Amino-1,3-dihydro-2H-benzo[d]imidazol-2-one"], "SMILES": "O=C1NC=2C(N1)=CC(N)=CC2", "physical_data": {"Molecular Weight": "149.15", "Molecular Formula": "C7H7N3O", "Melting Point": "&gt;300 \u00b0C"}}