{"cas_no": "95-24-9", "cn_name": "2-\u6c28\u57fa-6-\u6c2f\u82ef\u5e76\u567b\u5511", "en_name": ["2-Amino-6-chlorobenzothiazole", "2-Benzothiazolamine, 6-chloro-", "Benzothiazole, 2-amino-6-chloro-", "6-Chloro-2-benzothiazolamine", "2-Amino-6-chlorobenzothiazole", "6-Chloro-2-benzothiazolylamine", "6-Chloro-1,3-benzothiazol-2-ylamine", "6-Chloro-2-aminobenzothiazole", "6-Chloro-1,3-benzothiazol-2-amine", "SKA 3", "6-Chlorobenzo[d]thiazol-2-amine", "2-Amino-6-chloro-1,3-benzothiazole"], "SMILES": "NC1=NC=2C(S1)=CC(Cl)=CC2", "physical_data": {"Molecular Weight": "184.65", "Molecular Formula": "C7H5ClN2S", "Melting Point": "198 \u00b0C"}}