{"cas_no": "95-20-5", "cn_name": "2-\u7532\u57fa\u5432\u54da", "en_name": ["2-Methylindole", "1H-Indole, 2-methyl-", "Indole, 2-methyl-", "2-Methyl-1H-indole", "2-Methylindole", "NSC 7514"], "SMILES": "CC1=CC=2C(N1)=CC=CC2", "physical_data": {"Molecular Weight": "131.17", "Molecular Formula": "C9H9N", "Boiling Point": "272 \u00b0C", "Melting Point": "61 \u00b0C"}}