{"cas_no": "95-26-1", "cn_name": "2.5-\u4e8c\u7532\u57fa\u82ef\u5e76\u567b\u5511", "en_name": ["2,5-Dimethylbenzothiazole", "Benzothiazole, 2,5-dimethyl-", "2,5-Dimethylbenzothiazole", "2,5-Dimethyl-1,3-benzothiazole", "2,5-Dimethylbenzo[d]thiazole"], "SMILES": "CC=1SC=2C(N1)=CC(C)=CC2", "physical_data": {"Molecular Weight": "163.24", "Molecular Formula": "C9H9NS", "Boiling Point": "142-146 \u00b0C @ Press: 10 Torr", "Melting Point": "172-173 \u00b0C"}}