{"cas_no": "95-21-6", "cn_name": "2-\u7532\u57fa\u82ef\u5e76\u5511", "en_name": ["2-Methylbenzoxazole", "Benzoxazole, 2-methyl-", "2-Methylbenzoxazole", "2-Methyl-1,3-benzoxazole", "NSC 3824", "2-Methylbenzo[d]oxazole"], "SMILES": "CC1=NC=2C(O1)=CC=CC2", "physical_data": {"Molecular Weight": "133.15", "Molecular Formula": "C8H7NO", "Boiling Point": "200.5 \u00b0C", "Melting Point": "9.5 \u00b0C", "Density": "1.1294 g/cm\u00b3 @ Temp: 20 \u00b0C"}}