{"cas_no": "95-33-0", "cn_name": "N-\u73af\u5df1\u57fa-2-\u82ef\u5e76\u567b\u5511\u6b21\u78fa\u9170\u80fa", "en_name": ["Accelerator CZ", "2-Benzothiazolesulfenamide, N-cyclohexyl-", "N-Cyclohexyl-2-benzothiazolesulfenamide", "Conac A", "Curax", "Delac S", "Conac S", "Royal CBTS", "Santocure", "Sulfenamide Ts", "N-Cyclohexylbenzothiazolesulfenamide", "Ekagom CBS", "Vulkacit CZ", "Vulcafor CBS", "Sulfenax CB", "Thiohexam", "Sulfenax", "Sulfenax CB 30", "Rhodifax 16", "Accelerator CZ", "N-Cyclohexylbenzothiazole-2-sulphenamide", "2-(Cyclohexylaminothio)benzothiazole", "Benzothiazyl-2-cyclohexylsulfenamide", "CBS", "Nocceler CZ", "Vulkacit C", "Soxinol CZ", "Sulfenax CB/K", "Vulkacit CZ/K", "Vulkacit CZ/C", "Pennac CBS", "Accicure HBS", "N-Cyclohexyl-2-benzothiazolylsulphenamide", "Sanceler CM-PO", "Vulcafor HBS", "Sanceler CM", "Nocceler CZ-P", "CBTS", "N-Cyclohexyl-2-benzothiazolylsulfenamide", "N-Cyclohexyl-2-benzothiazylsulfenamide", "Nocceler CZ-G", "Rhenogran CBS", "2-Benzothiazolesulfenic acid N-cyclohexylamide", "Accel CZ", "Durax", "Vulkafil ZN 94TT02", "Sanceler CZ-P", "Vulkacit CZ/EG-C", "Sanceler CM-G", "CBS (accelerator)", "CZ-G", "Santocure CBS", "NSC 4809", "Banac CBS", "Vulkacit CZ/EG", "Vulkacit CZ/CV", "Perkacit CBS", "Sanceler CZ-G", "Rhenogran CBS 80", "Accelerator CM", "CZ", "CBS 80", "Accelerator CBS", "CZ Vulcanizer", "Nocceler CZ-R", "CZ 80", "Oricel CZ", "Vulkacit CBS", "Pilicure CBS", "Rubenamid C-EG/C", "sulfenamide Tz"], "SMILES": "S(NC1CCCCC1)C2=NC=3C(S2)=CC=CC3", "physical_data": {"Molecular Weight": "264.41", "Molecular Formula": "C13H16N2S2", "Melting Point": "93-100 \u00b0C", "Density": "1.27 g/cm\u00b3"}}