{"cas_no": "95-31-8", "cn_name": "N-\u53d4\u4e01\u57fa-2-\u82ef\u5e76\u567b\u5511\u6b21\u78fa\u9170\u80fa", "en_name": ["N-(1,1-Dimethylethyl)-2-benzothiazolesulfenamide", "2-Benzothiazolesulfenamide, N-(1,1-dimethylethyl)-", "2-Benzothiazolesulfenamide, N-tert-butyl-", "N-(1,1-Dimethylethyl)-2-benzothiazolesulfenamide", "Santocure NS", "Vulkacit NZ", "N-tert-Butyl-2-benzothiazolesulfenamide", "2-(tert-Butylaminothio)benzothiazole", "Benzothiazolyl-2-tert-butylsulfenamide", "Nocceler NS", "Accel BNS", "N-tert-Butyl-2-benzothiazolylsulphenamide", "Soxinol NS", "Delac NS", "2-[[(1,1-Dimethylethyl)amino]thio]benzothiazole", "BBTS", "Nocceler NS-F", "SA-TB", "Sanceler NS", "Rhenogran TBBS 80", "N-tert-Butyl-2-benzothiazolylsulfenamide", "NSG", "TBBS", "NSG (heterocycle)", "Sanceler NS-G", "N-tert-Butylbenzothiazolesulfenamide", "Cure NS", "Santocure TBBS", "Perkacit TBBS", "Sulfenamide TBBS", "NSC 84176", "Sulfenamide T", "NS-P", "Sanceler NS-F", "NS-F", "NS", "Vulkacit NZ/EG-C", "Vulkacit NZ/C", "NS 80 (vulcanization accelerator)", "NS 80", "Rubenamid T/Gr", "Nocceler NS-G", "n-tert-Butyl-2-benzothaiazole sulfonamide", "Luvomaxx TBBS", "Antioxidant NS", "Nocceler NS-P", "Santocure BBTS", "TBBS 80", "Vanax NS Rodform", "Sanceler NS-P"], "SMILES": "S(NC(C)(C)C)C1=NC=2C(S1)=CC=CC2", "physical_data": {"Molecular Weight": "238.37", "Molecular Formula": "C11H14N2S2", "Melting Point": "108 \u00b0C", "Density": "1.29 g/cm\u00b3 @ Temp: 25 \u00b0C"}}