{"cas_no": "95-30-7", "cn_name": "\u4e8c\u4e59\u57fa\u4e8c\u786b\u4ee3\u6c28\u57fa\u7532\u91782-\u82ef\u5e76\u567b\u5511\u916f", "en_name": ["Carbamodithioic acid, N,N-diethyl-, 2-benzothiazolyl ester", "Carbamodithioic acid, N,N-diethyl-, 2-benzothiazolyl ester", "Carbamic acid, diethyldithio-, 2-benzothiazolyl ester", "Carbamodithioic acid, diethyl-, 2-benzothiazolyl ester", "2-Benzothiazolethiol, diethyldithiocarbamate (ester)", "2-Benzothiazyl-N,N-diethylthiocarbamylsulfide", "Ethylac", "Diethyldithiocarbamic acid 2-benzothiazolyl ester", "N,N-Diethylthiocarbamoyl 2-benzothiazolyl sulfide", "2-Benzothiazolyl diethyldithiocarbamate", "2-(N,N-Diethylthiocarbamoylthio)benzothiazole", "Nocceler 64", "NSC 4035", "Accelerator E"], "SMILES": "S(C(N(CC)CC)=S)C1=NC=2C(S1)=CC=CC2", "physical_data": {"Molecular Weight": "282.45", "Molecular Formula": "C12H14N2S3", "Melting Point": "78-79 \u00b0C"}}