{"cas_no": "95-32-9", "cn_name": "2-(4-\u5417\u5549\u57fa\u4e8c\u786b\u4ee3)\u82ef\u5e76\u567b\u5511", "en_name": ["2-(4-Morpholinodithio)benzothiazole", "Benzothiazole, 2-(4-morpholinyldithio)-", "Benzothiazole, 2-(morpholinodithio)-", "2-(4-Morpholinyldithio)benzothiazole", "Morfax", "2-(Morpholinodithio)benzothiazole", "2-Benzothiazolyl morpholino disulfide", "N-(4-Morpholinyl) 2-benzothiazolyl disulfide", "Morpholino 2-benzothiazolyl disulfide", "Vulcuren 2", "2-(4-Morpholinodithio)benzothiazole", "2-Benzothiazolyl 4-morpholinyl disulfide", "Accel DS", "Nocceler MDB", "Disulfal MG", "NSC 519695", "Nocceler MDB-P", "N-(2-Benzothiazolyldithio)morpholine", "Accelerator 26", "Accelerator MDB", "Accelerator DS", "MDB", "4-Morpholinyl-2-benzothiazole disulfide"], "SMILES": "S(SN1CCOCC1)C2=NC=3C(S2)=CC=CC3", "physical_data": {"Molecular Weight": "284.42", "Molecular Formula": "C11H12N2OS3", "Melting Point": "125 \u00b0C"}}