{"cas_no": "95-38-5", "cn_name": "4,5-\u4e8c\u6c22\u5316-2-(8-\u5341\u4e03\u78b3\u70ef\u57fa)-1H-\u54aa\u5511-1-\u4e59\u9187", "en_name": ["2-(8-Heptadecen-1-yl)-4,5-dihydro-1H-imidazole-1-ethanol", "1H-Imidazole-1-ethanol, 2-(8-heptadecen-1-yl)-4,5-dihydro-", "2-Imidazoline-1-ethanol, 2-(8-heptadecenyl)-", "1H-Imidazole-1-ethanol, 2-(8-heptadecenyl)-4,5-dihydro-", "2-(8-Heptadecen-1-yl)-4,5-dihydro-1H-imidazole-1-ethanol", "Amine 220", "2-(8-Heptadecenyl)-2-imidazoline-1-ethanol", "1-(2-Hydroxyethyl)-2-heptadecenyl-2-imidazoline", "Nalcamine G 13", "UCL 5410", "NSC 231649", "Amino O"], "SMILES": "C(CCCCCCC=CCCCCCCCC)C=1N(CCO)CCN1", "physical_data": {"Molecular Weight": "350.58", "Molecular Formula": "C22H42N2O", "Boiling Point": "230-240 \u00b0C @ Press: 1 Torr"}}