{"cas_no": "95-44-3", "cn_name": "L-\u82cf\u7cd6", "en_name": ["L-Threose", "Butanal, 2,3,4-trihydroxy-, (2R,3S)-", "Threose, L-", "Butanal, 2,3,4-trihydroxy-, [R-(R*,S*)]-", "(2R,3S)-2,3,4-Trihydroxybutanal", "L-Threose", "L-Threofuranose"], "SMILES": "C(C(C=O)O)(CO)O", "physical_data": {"Molecular Weight": "120.10", "Molecular Formula": "C4H8O4", "Melting Point": "162-163 \u00b0C"}}