{"cas_no": "95-47-6", "cn_name": "\u90bb\u4e8c\u7532\u82ef", "en_name": ["o-Xylene", "Benzene, 1,2-dimethyl-", "o-Xylene", "1,2-Dimethylbenzene", "Orthoxylene", "o-Dimethylbenzene", "o-Xylol", "1,2-Xylene", "o-Methyltoluene", "ortho-Xylene", "2-Methyltoluene", "NSC 60920", "3,4-Dimethylbenzene"], "SMILES": "CC1=C(C)C=CC=C1", "physical_data": {"Molecular Weight": "106.17", "Molecular Formula": "C8H10", "Boiling Point": "144.4 \u00b0C @ Press: 760 Torr", "Melting Point": "-25 \u00b0C", "Density": "0.8801 g/cm\u00b3 @ Temp: 20 \u00b0C"}}