{"cas_no": "95-41-0", "cn_name": "2-\u5df1\u57fa-2-\u73af\u620a\u70ef-1-\u916e", "en_name": ["2-Hexyl-2-cyclopenten-1-one", "2-Cyclopenten-1-one, 2-hexyl-", "2-Hexyl-2-cyclopenten-1-one", "Dihydroisojasmone", "2-Hexyl-2-cyclopentenone", "2-Hexyl-1-cyclopenten-3-one", "Isojasmol", "NSC 78462", "2-n-Hexyl-2-cyclopentenone", "2-Hexyl-2-cyclopenten-1-on"], "SMILES": "C(CCCCC)C=1C(=O)CCC1", "physical_data": {"Molecular Weight": "166.26", "Molecular Formula": "C11H18O", "Boiling Point": "120 \u00b0C", "Density": "0.9113 g/cm\u00b3 @ Temp: 20 \u00b0C"}}