{"cas_no": "95-46-5", "cn_name": "2-\u6eb4\u7532\u82ef", "en_name": ["2-Bromotoluene", "Benzene, 1-bromo-2-methyl-", "Toluene, o-bromo-", "1-Bromo-2-methylbenzene", "o-Bromotoluene", "o-Tolyl bromide", "2-Bromotoluene", "2-Methylbromobenzene", "2-Tolyl bromide", "o-Methylphenyl bromide", "o-Bromomethylbenzene", "o-Methylbromobenzene", "2-Bromo-1-methylbenzene", "2-Methylphenyl bromide", "NSC 6532", "2-Methyl-1-bromobenzene"], "SMILES": "BrC1=C(C)C=CC=C1", "physical_data": {"Molecular Weight": "171.03", "Molecular Formula": "C7H7Br", "Boiling Point": "181.7 \u00b0C", "Melting Point": "-27.8 \u00b0C", "Density": "1.432 g/cm\u00b3 @ Temp: 20 \u00b0C"}}