{"cas_no": "95-43-2", "cn_name": "D-\u82cf\u7cd6", "en_name": ["D-Threose", "Butanal, 2,3,4-trihydroxy-, (2S,3R)-", "Threose, D-", "Butanal, 2,3,4-trihydroxy-, [S-(R*,S*)]-", "(2S,3R)-2,3,4-Trihydroxybutanal", "D-Threose", "D-(-)-Threose"], "SMILES": "C(C(C=O)O)(CO)O", "physical_data": {"Molecular Weight": "", "Molecular Formula": "C4H8O4", "Melting Point": "129 \u00b0C"}}