{"cas_no": "95-45-4", "cn_name": "\u4e8c\u7532\u57fa\u4e59\u4e8c\u919b\u809f", "en_name": ["Dimethylglyoxime", "2,3-Butanedione, 2,3-dioxime", "2,3-Butanedione, dioxime", "Diacetyl dioxime", "Dimethylglyoxime", "2,3-Diisonitrosobutane", "Chugaev's reagent", "Biacetyl dioxime", "Reagents, Chugaev's", "NSC 9"], "SMILES": "C(C(=NO)C)(=NO)C", "physical_data": {"Molecular Weight": "116.12", "Molecular Formula": "C4H8N2O2", "Boiling Point": "249-295 \u00b0C", "Melting Point": "245.5 \u00b0C"}}