{"cas_no": "95-49-8", "cn_name": "2-\u6c2f\u7532\u82ef", "en_name": ["2-Chlorotoluene", "Benzene, 1-chloro-2-methyl-", "Toluene, o-chloro-", "1-Chloro-2-methylbenzene", "2-Chloro-1-methylbenzene", "o-Chlorotoluene", "2-Chlorotoluene", "1-Methyl-2-chlorobenzene", "o-Tolyl chloride", "2-Methylchlorobenzene", "o-Methylchlorobenzene", "2-Methylphenyl chloride", "NSC 8766", "2-Tolyl chloride", "2-Methyl-1-chlorobenzene"], "SMILES": "CC1=C(Cl)C=CC=C1", "physical_data": {"Molecular Weight": "126.58", "Molecular Formula": "C7H7Cl", "Boiling Point": "158.97 \u00b0C", "Melting Point": "-35.59 \u00b0C", "Density": "1.0826 g/cm\u00b3 @ Temp: 20 \u00b0C"}}