{"cas_no": "95-48-7", "cn_name": "\u90bb\u7532\u915a", "en_name": ["o-Cresol", "Phenol, 2-methyl-", "o-Cresol", "2-Methylphenol", "o-Hydroxytoluene", "o-Methylphenol", "o-Oxytoluene", "2-Cresol", "o-Methylphenylol", "2-Hydroxytoluene", "o-Toluol", "1-Hydroxy-2-methylbenzene", "o-Cresylic acid", "1-Methyl-2-hydroxybenzene", "NSC 23076", "NSC 36809"], "SMILES": "CC1=C(O)C=CC=C1", "physical_data": {"Molecular Weight": "108.14", "Molecular Formula": "C7H8O", "Boiling Point": "191-192 \u00b0C", "Melting Point": "30 \u00b0C", "Density": "1.047 g/cm\u00b3 @ Temp: 20 \u00b0C"}}