{"cas_no": "95-53-4", "cn_name": "\u90bb\u7532\u82ef\u80fa", "en_name": ["o-Toluidine", "Benzenamine, 2-methyl-", "o-Toluidine", "2-Methylbenzenamine", "2-Aminotoluene", "o-Methylaniline", "o-Methylbenzenamine", "2-Methyl-1-aminobenzene", "2-Toluidine", "2-Methylaniline", "o-Tolylamine", "1-Amino-2-methylbenzene", "o-Aminotoluene", "2-Amino-1-methylbenzene", "2-Methylphenylamine", "2-Tolylamine", "NSC 15348", "6-Methylaniline"], "SMILES": "CC1=C(N)C=CC=C1", "physical_data": {"Molecular Weight": "107.15", "Molecular Formula": "C7H9N", "Boiling Point": "200.3 \u00b0C", "Melting Point": "-16.3 \u00b0C", "Density": "1.008 g/cm\u00b3 @ Temp: 20 \u00b0C"}}