{"cas_no": "95-55-6", "cn_name": "2-\u6c28\u57fa\u82ef\u915a", "en_name": ["2-Aminophenol", "Phenol, 2-amino-", "Phenol, o-amino-", "2-Aminophenol", "C.I. 76520", "o-Aminophenol", "BASF Ursol 3GA", "Benzofur GG", "C.I. Oxidation Base 17", "Fouramine OP", "Nako Yellow 3GA", "Paradone Olive Green B", "Pelagol 3GA", "Pelagol Grey GG", "Zoba 3GA", "o-Hydroxyaniline", "o-Hydroxyphenylamine", "1-Amino-2-hydroxybenzene", "1-Hydroxy-2-aminobenzene", "2-Hydroxyaniline", "2-Hydroxybenzenamine", "o-Aminohydroxybenzene", "Rodol 2G", "NSC 1534", "NSC 226261", "(2-Hydroxyphenyl)amine", "2-Amino-1-hydroxybenzene", "2-Aminophenyl alcohol"], "SMILES": "NC1=C(O)C=CC=C1", "physical_data": {"Molecular Weight": "109.13", "Molecular Formula": "C6H7NO", "Boiling Point": "100 \u00b0C @ Press: 1 x 10<sup>-3</sup>-3 x 10<sup>-3</sup> Torr", "Melting Point": "170-174 \u00b0C", "Density": "1.328 g/cm\u00b3 @ Temp: 25 \u00b0C"}}