{"cas_no": "95-56-7", "cn_name": "2-\u6eb4\u82ef\u915a", "en_name": ["2-Bromophenol", "Phenol, 2-bromo-", "Phenol, o-bromo-", "2-Bromophenol", "o-Bromophenol", "NSC 6970", "2-Hydroxy-1-bromobenzene", "2-Bromo-3-hydroxybenzene"], "SMILES": "BrC1=C(O)C=CC=C1", "physical_data": {"Molecular Weight": "173.01", "Molecular Formula": "C6H5BrO", "Boiling Point": "194.5 \u00b0C", "Melting Point": "5.6 \u00b0C"}}