{"cas_no": "95-51-2", "cn_name": "\u90bb\u6c2f\u82ef\u80fa", "en_name": ["2-Chloroaniline", "Benzenamine, 2-chloro-", "Aniline, o-chloro-", "2-Chlorobenzenamine", "o-Chloroaniline", "Fast Yellow GC Base", "2-Chloroaniline", "1-Amino-2-chlorobenzene", "2-Chlorophenylamine", "2-Amino-1-chlorobenzene", "o-Aminochlorobenzene", "NSC 6183"], "SMILES": "ClC1=C(N)C=CC=C1", "physical_data": {"Molecular Weight": "127.57", "Molecular Formula": "C6H6ClN", "Boiling Point": "208.84 \u00b0C", "Melting Point": "-14 \u00b0C", "Density": "1.2114 g/cm\u00b3 @ Temp: 22 \u00b0C"}}