{"cas_no": "95-52-3", "cn_name": "2-\u6c1f\u7532\u82ef", "en_name": ["2-Fluorotoluene", "Benzene, 1-fluoro-2-methyl-", "Toluene, o-fluoro-", "1-Fluoro-2-methylbenzene", "o-Fluorotoluene", "2-Fluorotoluene", "NSC 8859"], "SMILES": "CC1=C(F)C=CC=C1", "physical_data": {"Molecular Weight": "110.13", "Molecular Formula": "C7H7F", "Boiling Point": "115 \u00b0C", "Melting Point": "-62 \u00b0C", "Density": "1.0041 g/cm\u00b3 @ Temp: 13.2 \u00b0C"}}