{"cas_no": "95-50-1", "cn_name": "\u90bb\u4e8c\u6c2f\u82ef", "en_name": ["1,2-Dichlorobenzene", "Benzene, 1,2-dichloro-", "Benzene, o-dichloro-", "1,2-Dichlorobenzene", "Cloroben", "o-Dichlorobenzene", "Dowtherm E", "Dilatin DB", "NSC 60644"], "SMILES": "ClC1=C(Cl)C=CC=C1", "physical_data": {"Molecular Weight": "147.00", "Molecular Formula": "C6H4Cl2", "Boiling Point": "180.1 \u00b0C @ Press: 760 Torr", "Melting Point": "-16.7 \u00b0C", "Density": "1.3059 g/cm\u00b3 @ Temp: 20 \u00b0C"}}