{"cas_no": "95-58-9", "cn_name": "2-\u6c2f-3-\u7532\u57fa\u5421\u55ea", "en_name": ["2-Chloro-3-methylpyrazine", "Pyrazine, 2-chloro-3-methyl-", "2-Chloro-3-methylpyrazine", "2-Methyl-3-chloropyrazine", "NSC 41093"], "SMILES": "CC=1C(Cl)=NC=CN1", "physical_data": {"Molecular Weight": "128.56", "Molecular Formula": "C5H5ClN2", "Boiling Point": "78 \u00b0C @ Press: 25 Torr"}}