{"cas_no": "95-57-8", "cn_name": "2-\u6c2f\u82ef\u915a", "en_name": ["2-Chlorophenol", "Phenol, 2-chloro-", "Phenol, o-chloro-", "2-Chlorophenol", "o-Chlorophenol", "2-Hydroxychlorobenzene", "1-Chloro-2-hydroxybenzene", "o-Chlorophenic acid", "NSC 2870", "NSC 5725"], "SMILES": "ClC1=C(O)C=CC=C1", "physical_data": {"Molecular Weight": "128.56", "Molecular Formula": "C6H5ClO", "Boiling Point": "174.9 \u00b0C @ Press: 760 Torr", "Melting Point": "9.8 \u00b0C", "Density": "1.2634 g/cm\u00b3 @ Temp: 20 \u00b0C"}}