{"cas_no": "95-54-5", "cn_name": "\u90bb\u82ef\u4e8c\u80fa", "en_name": ["o-Phenylenediamine", "1,2-Benzenediamine", "o-Phenylenediamine", "C.I. 76010", "C.I. Oxidation Base 16", "o-Diaminobenzene", "Orthamine", "1,2-Diaminobenzene", "1,2-Phenylenediamine", "o-Benzenediamine", "2-Aminoaniline", "o-Aminoaniline", "IK 3 (amine)", "o-Aminophenylamine", "IK 3", "NSC 5354", "OPDA", "o-Phenylenediamine"], "SMILES": "NC1=C(N)C=CC=C1", "physical_data": {"Molecular Weight": "108.14", "Molecular Formula": "C6H8N2", "Boiling Point": "256-258 \u00b0C", "Melting Point": "103-104 \u00b0C"}}