{"cas_no": "95-64-7", "cn_name": "3,4-\u4e8c\u7532\u57fa\u82ef\u80fa", "en_name": ["3,4-Dimethylaniline", "Benzenamine, 3,4-dimethyl-", "3,4-Xylidine", "3,4-Dimethylbenzenamine", "3,4-Dimethylaniline", "4-Amino-1,2-dimethylbenzene", "3,4-Dimethylaminobenzene", "1-Amino-3,4-dimethylbenzene", "4-Amino-o-xylene", "3,4-Xylylamine", "3,4-Dimethylphenylamine", "NSC 41800", "NSC 7099"], "SMILES": "CC1=C(C)C=CC(N)=C1", "physical_data": {"Molecular Weight": "121.18", "Molecular Formula": "C8H11N", "Boiling Point": "228 \u00b0C @ Press: 760 Torr", "Melting Point": "51 \u00b0C", "Density": "1.076 g/cm\u00b3 @ Temp: 18 \u00b0C"}}