{"cas_no": "95-69-2", "cn_name": "4-\u6c2f-2-\u7532\u57fa\u82ef\u80fa", "en_name": ["4-Chloro-2-methylaniline", "Benzenamine, 4-chloro-2-methyl-", "o-Toluidine, 4-chloro-", "4-Chloro-2-methylbenzenamine", "Daito Red Base TR", "Fast Red Base TR", "Fast Red 5CT Base", "Fast Red TR Base", "Fast Red TRO Base", "Kako Red TR Base", "Mitsui Red TR Base", "Red Base NTR", "Red TR Base", "Sanyo Fast Red TR Base", "4-Chloro-o-toluidine", "2-Methyl-4-chloroaniline", "2-Amino-5-chlorotoluene", "4-Chloro-2-toluidine", "4-Chloro-2-methylaniline", "p-Chloro-o-toluidine", "4-Chloro-6-methylaniline", "3-Chloro-6-aminotoluene", "Fast Red TR-T Base", "5-Chloro-2-aminotoluene", "2-Methyl-4-chlorobenzenamine", "NSC 4979", "(4-Chloro-2-methylphenyl)amine"], "SMILES": "CC1=C(N)C=CC(Cl)=C1", "physical_data": {"Molecular Weight": "141.60", "Molecular Formula": "C7H8ClN", "Boiling Point": "241 \u00b0C @ Press: 760 Torr", "Melting Point": "30 \u00b0C"}}