{"cas_no": "95-63-6", "cn_name": "1,2,4-\u4e09\u7532\u57fa\u82ef", "en_name": ["1,2,4-Trimethylbenzene", "Benzene, 1,2,4-trimethyl-", "1,2,4-Trimethylbenzene", "\u03c8-Cumene", "Pseudocumene", "Pseudocumol", "1,3,4-Trimethylbenzene", "1,2,5-Trimethylbenzene", "Methyl-p-xylene", "NSC 65600", "pseudo-Cumene", "3,4-Dimethyltoluene"], "SMILES": "CC1=C(C)C=CC(C)=C1", "physical_data": {"Molecular Weight": "120.19", "Molecular Formula": "C9H12", "Boiling Point": "168.89 \u00b0C", "Melting Point": "-43.8 \u00b0C", "Density": "0.8761 g/cm\u00b3 @ Temp: 20 \u00b0C"}}