{"cas_no": "95-65-8", "cn_name": "3,4-\u4e8c\u7532\u57fa\u82ef\u915a", "en_name": ["3,4-Dimethylphenol", "Phenol, 3,4-dimethyl-", "3,4-Xylenol", "3,4-Dimethylphenol", "4,5-Dimethylphenol", "4-Hydroxy-1,2-dimethylbenzene", "1,3,4-Xylenol", "1-Hydroxy-3,4-dimethylbenzene", "NSC 1549", "3,4-DMP"], "SMILES": "CC1=C(C)C=CC(O)=C1", "physical_data": {"Molecular Weight": "122.16", "Molecular Formula": "C8H10O", "Boiling Point": "225 \u00b0C", "Melting Point": "62.5 \u00b0C", "Density": "0.983 g/cm\u00b3 @ Temp: 20 \u00b0C"}}