{"cas_no": "95-68-1", "cn_name": "2,4-\u4e8c\u7532\u57fa\u82ef\u80fa", "en_name": ["2,4-Dimethylaniline", "Benzenamine, 2,4-dimethyl-", "2,4-Xylidine", "2,4-Dimethylbenzenamine", "2,4-Dimethylaniline", "1-Amino-2,4-dimethylbenzene", "4-Amino-1,3-dimethylbenzene", "4-Amino-1,3-xylene", "m-Xylidine", "2,4-Dimethylphenylamine", "2,4-Xylylamine", "NSC 7640"], "SMILES": "CC1=C(N)C=CC(C)=C1", "physical_data": {"Molecular Weight": "121.18", "Molecular Formula": "C8H11N", "Boiling Point": "214 \u00b0C @ Press: 760 Torr", "Melting Point": "-14.3 \u00b0C", "Density": "0.9723 g/cm\u00b3 @ Temp: 20 \u00b0C"}}