{"cas_no": "95-71-6", "cn_name": "2,5-\u4e8c\u7f9f\u57fa\u7532\u82ef", "en_name": ["Methylhydroquinone", "1,4-Benzenediol, 2-methyl-", "Hydroquinone, methyl-", "2-Methyl-1,4-benzenediol", "Methylhydroquinone", "p-Toluhydroquinol", "p-Toluhydroquinone", "Toluhydroquinone", "2-Methylhydroquinone", "2,5-Dihydroxytoluene", "Methyl-p-hydroquinone", "p-Toluquinol", "Tolylhydroquinone", "THQ", "2,5-Toluenediol", "1,4-Dihydroxy-2-methylbenzene", "2-Methyl-p-hydroquinone", "2-Methyl-1,4-dihydroxybenzene", "2-Methyl-1,4-hydroquinone", "4-Hydroxy-2-methylphenol", "M-HQ", "NSC 4962", "o-Methylhydroquinone", "m-Methylhydroquinone", "Methyl 1,4-dihydroxybenzene", "Pyrolin"], "SMILES": "CC1=C(O)C=CC(O)=C1", "physical_data": {"Molecular Weight": "124.14", "Molecular Formula": "C7H8O2", "Boiling Point": "272 \u00b0C", "Melting Point": "128 \u00b0C"}}