{"cas_no": "95-73-8", "cn_name": "2,4-\u4e8c\u6c2f\u7532\u82ef", "en_name": ["2,4-Dichlorotoluene", "Benzene, 2,4-dichloro-1-methyl-", "Toluene, 2,4-dichloro-", "2,4-Dichloro-1-methylbenzene", "2,4-Dichlorotoluene", "1,3-Dichloro-4-methylbenzene", "NSC 8764"], "SMILES": "ClC1=C(C)C=CC(Cl)=C1", "physical_data": {"Molecular Weight": "161.03", "Molecular Formula": "C7H6Cl2", "Boiling Point": "201 \u00b0C @ Press: 760 Torr", "Melting Point": "-13.5 \u00b0C", "Density": "1.2476 g/cm\u00b3 @ Temp: 20 \u00b0C"}}