{"cas_no": "95-75-0", "cn_name": "3,4-\u4e8c\u6c2f\u7532\u82ef", "en_name": ["3,4-Dichlorotoluene", "Benzene, 1,2-dichloro-4-methyl-", "Toluene, 3,4-dichloro-", "1,2-Dichloro-4-methylbenzene", "3,4-Dichlorotoluene", "NSC 8765"], "SMILES": "ClC1=C(Cl)C=CC(C)=C1", "physical_data": {"Molecular Weight": "161.03", "Molecular Formula": "C7H6Cl2", "Boiling Point": "208.9 \u00b0C", "Melting Point": "-15.2 \u00b0C", "Density": "1.2541 g/cm\u00b3 @ Temp: 20 \u00b0C"}}