{"cas_no": "95-72-7", "cn_name": "2-\u6c2f-1,4-\u4e8c\u7532\u57fa\u82ef", "en_name": ["Chloro-p-xylene", "Benzene, 2-chloro-1,4-dimethyl-", "p-Xylene, 2-chloro-", "2-Chloro-1,4-dimethylbenzene", "2-Chloro-p-xylene", "1-Chloro-2,5-dimethylbenzene", "Chloro-p-xylene", "2,5-Dimethylchlorobenzene", "Monochloro-p-xylene", "1,4-Dimethyl-2-chlorobenzene", "NSC 60148", "2,5-Dimethyl-1-chlorobenzene"], "SMILES": "ClC1=C(C)C=CC(C)=C1", "physical_data": {"Molecular Weight": "140.61", "Molecular Formula": "C8H9Cl", "Boiling Point": "187 \u00b0C", "Melting Point": "1.6 \u00b0C", "Density": "1.0589 g/cm\u00b3 @ Temp: 15 \u00b0C"}}