{"cas_no": "95-76-1", "cn_name": "3,4-\u4e8c\u6c2f\u82ef\u80fa", "en_name": ["3,4-Dichloroaniline", "Benzenamine, 3,4-dichloro-", "Aniline, 3,4-dichloro-", "3,4-Dichlorobenzenamine", "DCA (amine)", "3,4-Dichloraniline", "3,4-Dichloroaniline", "3,4-DCA", "4,5-Dichloroaniline", "m,p-Dichloroaniline", "DCA", "4-Amino-1,2-dichlorobenzene", "LY 004892", "3,4-Dichlorophenylamine", "NSC 247"], "SMILES": "ClC1=C(Cl)C=CC(N)=C1", "physical_data": {"Molecular Weight": "162.02", "Molecular Formula": "C6H5Cl2N", "Boiling Point": "272 \u00b0C", "Melting Point": "71-72 \u00b0C", "Density": "1.33 g/cm\u00b3"}}