{"cas_no": "95-78-3", "cn_name": "2,5-\u4e8c\u7532\u57fa\u82ef\u80fa", "en_name": ["2,5-Dimethylaniline", "Benzenamine, 2,5-dimethyl-", "2,5-Xylidine", "2,5-Dimethylbenzenamine", "1-Amino-2,5-dimethylbenzene", "p-Xylidine", "2,5-Dimethylaniline", "3-Amino-1,4-dimethylbenzene", "2-Amino-1,4-xylene", "5-Amino-1,4-dimethylbenzene", "2,5-Dimethylphenylamine", "NSC 7639"], "SMILES": "NC1=C(C)C=CC(C)=C1", "physical_data": {"Molecular Weight": "121.18", "Molecular Formula": "C8H11N", "Boiling Point": "214 \u00b0C @ Press: 760 Torr", "Melting Point": "15.5 \u00b0C", "Density": "0.9790 g/cm\u00b3 @ Temp: 21 \u00b0C"}}