{"cas_no": "95-70-5", "cn_name": "2,5-\u4e8c\u6c28\u57fa\u7532\u82ef", "en_name": ["2,5-Diaminotoluene", "1,4-Benzenediamine, 2-methyl-", "Toluene-2,5-diamine", "2-Methyl-1,4-benzenediamine", "C.I. 76042", "Toluylene-2,5-diamine", "2-Methyl-p-phenylenediamine", "2,5-Diaminotoluene", "4-Amino-2-methylaniline", "2-Methyl-1,4-phenylenediamine", "p-Toluenediamine", "1,4-Diamino-2-methylbenzene", "1-Methyl-2,5-diaminobenzene", "2,5-Diaminotoluol", "4-Amino-3-methylaniline"], "SMILES": "CC1=C(N)C=CC(N)=C1", "physical_data": {"Molecular Weight": "122.17", "Molecular Formula": "C7H10N2", "Boiling Point": "273.5 \u00b0C", "Melting Point": "64 \u00b0C"}}