{"cas_no": "95-77-2", "cn_name": "3,4-\u4e8c\u6c2f\u82ef\u915a", "en_name": ["3,4-Dichlorophenol", "Phenol, 3,4-dichloro-", "3,4-Dichlorophenol", "4,5-Dichlorophenol", "NSC 60648"], "SMILES": "ClC1=C(Cl)C=CC(O)=C1", "physical_data": {"Molecular Weight": "163.00", "Molecular Formula": "C6H4Cl2O", "Boiling Point": "253 \u00b0C", "Melting Point": "68 \u00b0C"}}