{"cas_no": "95-79-4", "cn_name": "5-\u6c2f\u90bb\u7532\u82ef\u80fa", "en_name": ["5-Chloro-2-methylaniline", "Benzenamine, 5-chloro-2-methyl-", "o-Toluidine, 5-chloro-", "Fast Red KB Base", "5-Chloro-2-methylbenzenamine", "Ansibase Red KB", "Pharmazoid Red KB", "Spectrolene Red KB", "5-Chloro-o-toluidine", "2-Methyl-5-chloroaniline", "5-Chloro-2-methylaniline", "3-Chloro-6-methylaniline", "2-Amino-4-chlorotoluene", "Fast Red KBS salt", "Genazo Red KB soln", "Fast Red KB salt Supra", "Fast Red KB salt", "Acco Fast Red KB base", "Azoene Fast Red KB base", "Red KB base", "Fast Red KB amine", "Stable Red KB base", "Hiltonil Fast Red KB base", "Metrogen Red Former KB soln", "Naphthosol Fast Red KB base", "Fast Red KB-T Base", "4-Chloro-2-aminotoluene", "5-Chloro-2-toluidine", "NSC 7094", "5-Chloro-2-methylphenylamine"], "SMILES": "NC1=C(C)C=CC(Cl)=C1", "physical_data": {"Molecular Weight": "141.60", "Molecular Formula": "C7H8ClN", "Boiling Point": "237 \u00b0C @ Press: 722 Torr", "Melting Point": "26 \u00b0C"}}