{"cas_no": "95-74-9", "cn_name": "3-\u6c2f\u5bf9\u7532\u82ef\u80fa", "en_name": ["3-Chloro-4-methylaniline", "Benzenamine, 3-chloro-4-methyl-", "p-Toluidine, 3-chloro-", "3-Chloro-4-methylbenzenamine", "3-Chloro-p-toluidine", "3-Chloro-4-methylaniline", "4-Methyl-3-chloroaniline", "1-Amino-3-chloro-4-methylbenzene", "2-Chloro-4-aminotoluene", "DRC 1347", "3-Chloro-4-methylphenylamine", "NSC 96620", "4-Amino-2-chlorotoluene"], "SMILES": "ClC1=C(C)C=CC(N)=C1", "physical_data": {"Molecular Weight": "141.60", "Molecular Formula": "C7H8ClN", "Boiling Point": "242-244 \u00b0C @ Press: 760 Torr", "Melting Point": "26 \u00b0C"}}