{"cas_no": "95-80-7", "cn_name": "2,4-\u4e8c\u6c28\u57fa\u7532\u82ef", "en_name": ["2,4-Diaminotoluene", "1,3-Benzenediamine, 4-methyl-", "Toluene-2,4-diamine", "4-Methyl-1,3-benzenediamine", "2,4-Diaminotoluene", "Fouramine J", "Fourrine M", "Fourrine 94", "4-Methyl-m-phenylenediamine", "Nako TMT", "Pelagol J", "Pelagol Grey J", "Pontamine Developer TN", "Renal MD", "m-Toluenediamine", "m-Tolylenediamine", "2,4-Tolylenediamine", "Zoba GKE", "2,4-Diamino-1-methylbenzene", "C.I. Oxidation Base 35", "Eucanine GB", "1,3-Diamino-4-methylbenzene", "TDA", "4-Methyl-1,3-phenylenediamine", "Brown for Fur T", "TDA (diamine)", "3-Amino-4-methylaniline", "4-Methyl-1,3-diaminobenzene", "2-Methyl-1,5-benzenediamine"], "SMILES": "NC1=C(C)C=CC(N)=C1", "physical_data": {"Molecular Weight": "122.17", "Molecular Formula": "C7H10N2", "Boiling Point": "292 \u00b0C", "Melting Point": "99 \u00b0C"}}