{"cas_no": "95-83-0", "cn_name": "4-\u6c2f-1,2-\u82ef\u4e8c\u80fa", "en_name": ["4-Chloro-1,2-phenylenediamine", "1,2-Benzenediamine, 4-chloro-", "o-Phenylenediamine, 4-chloro-", "4-Chloro-1,2-benzenediamine", "C.I. 76015", "4-Chloro-1,2-diaminobenzene", "Ursol Olive 6G", "1,2-Diamino-4-chlorobenzene", "4-Chloro-o-phenylenediamine", "3-Chloro-1,6-phenylenediamine", "4-Chloro-1,2-phenylenediamine", "2-Amino-4-chloroaniline", "3,4-Diamino-1-chlorobenzene", "3,4-Diaminochlorobenzene", "4-Chloro-2-aminoaniline", "2-Amino-5-chloroaniline", "p-Chloro-o-phenylenediamine", "2-Amino-4-chlorobenzenamine", "5-Chloro-1,2-phenylenediamine", "NSC 6157", "4-Chlorophenyldiamine", "4-Chlorobenzen-1,2-diamine", "4-Chlorophenylenediamine", "5-Chlorobenzene-1,2-diamine"], "SMILES": "NC1=C(N)C=CC(Cl)=C1", "physical_data": {"Molecular Weight": "142.59", "Molecular Formula": "C6H7ClN2", "Boiling Point": "229.3 \u00b0C", "Melting Point": "76 \u00b0C"}}