{"cas_no": "95-85-2", "cn_name": "4-\u6c2f-2-\u6c28\u57fa\u82ef\u915a", "en_name": ["2-Amino-4-chlorophenol", "Phenol, 2-amino-4-chloro-", "2-Amino-4-chlorophenol", "C.I. 76525", "C.I. Oxidation Base 18", "Fouramine PY", "p-Chloro-o-aminophenol", "1-Amino-2-hydroxy-5-chlorobenzene", "1-Hydroxy-2-amino-4-chlorobenzene", "2-Hydroxy-5-chloroaniline", "4-Chloro-2-aminophenol", "5-Chloro-2-hydroxyaniline", "o-Amino-p-chlorophenol", "4-Chloro-o-aminophenol", "NSC 247814"], "SMILES": "NC1=C(O)C=CC(Cl)=C1", "physical_data": {"Molecular Weight": "143.57", "Molecular Formula": "C6H6ClNO", "Melting Point": "140 \u00b0C"}}