{"cas_no": "95-87-4", "cn_name": "2,5-\u4e8c\u7532\u57fa\u82ef\u915a", "en_name": ["2,5-Dimethylphenol", "Phenol, 2,5-dimethyl-", "2,5-Xylenol", "2,5-Dimethylphenol", "p-Xylenol", "1,2,5-Xylenol", "1-Hydroxy-2,5-dimethylbenzene", "3,6-Dimethylphenol", "NSC 2599", "2-Hydroxy-p-xylene"], "SMILES": "OC1=C(C)C=CC(C)=C1", "physical_data": {"Molecular Weight": "122.16", "Molecular Formula": "C8H10O", "Boiling Point": "211.5 \u00b0C @ Press: 762 Torr", "Melting Point": "74.5 \u00b0C", "Density": "0.965 g/cm\u00b3 @ Temp: 80 \u00b0C"}}