{"cas_no": "95-82-9", "cn_name": "2,5-\u4e8c\u6c2f\u82ef\u80fa", "en_name": ["2,5-Dichloroaniline", "Benzenamine, 2,5-dichloro-", "Aniline, 2,5-dichloro-", "2,5-Dichlorobenzenamine", "Amarthol Fast Scarlet GG Base", "Amarthol Fast Scarlet GGS Base", "Azobase DCA", "Azoene Fast Scarlet 2G Base", "Azogene Fast Scarlet GGC", "Daito Scarlet Base GG", "Devol Scarlet 2GS Base", "Fast Red SGG Base", "Fast Scarlet 2G", "Fast Scarlet 2G Base", "Fast Scarlet Base 2J", "Fast Scarlet Base 2JS", "Fast Scarlet Base GGT", "Fast Scarlet DS Base", "Fast Scarlet GG Base", "Fast Scarlet GGS Base", "Fast Scarlet MDC Base", "2,5-Dichloroaniline", "Hiltonil Fast Scarlet 2GS Base", "Hiltonil Fast Scarlet 2G Base", "Hindamine Scarlet GG", "Kambamine Scarlet GG Base", "Kayaku Scarlet GG Base", "Lake Scarlet GG Base", "Mitsui Scarlet GG Base", "Naphthanil Scarlet 2G Base", "Naphtoelan Fast Scarlet GG Base", "Natasol Scarlet GG Salt", "Sanyo Fast Scarlet GG Base", "Scarlet Base Ciba I", "Scarlet Base GG", "Scarlet Base NGG", "Scarlet Salt Ciba I", "Spectrolene Scarlet 2G", "Stabamine Scarlet GG", "Symulon Scarlet 2G Base", "2,5-Dichloro-1-aminobenzene", "1-Amino-2,5-dichlorobenzene", "2-Amino-1,4-dichlorobenzene", "NSC 1492", "2,5-Dichlorophenylamine"], "SMILES": "NC1=C(Cl)C=CC(Cl)=C1", "physical_data": {"Molecular Weight": "162.02", "Molecular Formula": "C6H5Cl2N", "Boiling Point": "251 \u00b0C", "Melting Point": "50 \u00b0C", "Density": "1.54 g/cm\u00b3"}}