{"cas_no": "95-84-1", "cn_name": "\u90bb\u6c28\u57fa\u5bf9\u7532\u82ef\u915a", "en_name": ["2-Amino-4-methylphenol", "Phenol, 2-amino-4-methyl-", "p-Cresol, 2-amino-", "2-Amino-4-methylphenol", "6-Hydroxy-m-toluidine", "2-Amino-p-cresol", "2-Hydroxy-5-methylaniline", "1-Amino-2-hydroxy-5-methylbenzene", "1-Hydroxy-2-amino-4-methylbenzene", "5-Methyl-2-hydroxyaniline", "4-Methyl-2-aminophenol", "3-Amino-4-hydroxytoluene", "4-Methyl-o-aminophenol", "(2-Hydroxy-5-methylphenyl)amine", "NSC 60737", "NSC 7630", "2-Amino-4-cresol"], "SMILES": "NC1=C(O)C=CC(C)=C1", "physical_data": {"Molecular Weight": "123.15", "Molecular Formula": "C7H9NO", "Melting Point": "136 \u00b0C"}}