{"cas_no": "95-88-5", "cn_name": "4-\u6c2f\u95f4\u82ef\u4e8c\u915a", "en_name": ["4-Chlororesorcinol", "1,3-Benzenediol, 4-chloro-", "Resorcinol, 4-chloro-", "4-Chloro-1,3-benzenediol", "C.I. 76510", "4-Chlororesorcinol", "4-Chloro-1,3-dihydroxybenzene", "4-Chlororesorcin", "p-Chlororesorcinol", "6-Chlororesorcinol", "2,4-Dihydroxychlorobenzene", "1-Chloro-2,4-dihydroxybenzene", "NSC 1569", "NSC 6298"], "SMILES": "OC1=C(Cl)C=CC(O)=C1", "physical_data": {"Molecular Weight": "144.56", "Molecular Formula": "C6H5ClO2", "Boiling Point": "259.5 \u00b0C", "Melting Point": "107 \u00b0C"}}