{"cas_no": "95-89-6", "cn_name": "3-\u6c2f-2,5-\u4e8c\u7532\u57fa\u5421\u55ea", "en_name": ["3-Chloro-2,5-dimethylpyrazine", "Pyrazine, 3-chloro-2,5-dimethyl-", "3-Chloro-2,5-dimethylpyrazine", "2-Chloro-3,6-dimethylpyrazine", "NSC 40820"], "SMILES": "ClC=1C(C)=NC=C(C)N1", "physical_data": {"Molecular Weight": "142.59", "Molecular Formula": "C6H7ClN2", "Boiling Point": "66-69 \u00b0C"}}