{"cas_no": "95-81-8", "cn_name": "2-\u6c2f-5-\u7532\u57fa\u82ef\u80fa", "en_name": ["2-Chloro-5-methylaniline", "Benzenamine, 2-chloro-5-methyl-", "m-Toluidine, 6-chloro-", "2-Chloro-5-methylbenzenamine", "6-Chloro-m-toluidine", "2-Chloro-5-methylaniline", "3-Amino-4-chlorotoluene"], "SMILES": "NC1=C(Cl)C=CC(C)=C1", "physical_data": {"Molecular Weight": "141.60", "Molecular Formula": "C7H8ClN", "Boiling Point": "229 \u00b0C", "Melting Point": "29.5 \u00b0C"}}