{"cas_no": "95-95-4", "cn_name": "2,4,5-\u4e09\u6c2f\u82ef\u915a", "en_name": ["2,4,5-Trichlorophenol", "Phenol, 2,4,5-trichloro-", "2,4,5-Trichlorophenol", "Dowicide 2", "Preventol I", "TCP", "2.4,5-Trichlorophenic acid", "NSC 2266"], "SMILES": "ClC1=C(Cl)C=C(O)C(Cl)=C1", "physical_data": {"Molecular Weight": "197.45", "Molecular Formula": "C6H3Cl3O", "Boiling Point": "247 \u00b0C @ Press: 760 Torr", "Melting Point": "69 \u00b0C", "Density": "1.678 g/cm\u00b3 @ Temp: 25 \u00b0C"}}