{"cas_no": "95-96-5", "cn_name": "\u4e19\u4ea4\u916f", "en_name": ["Lactide", "1,4-Dioxane-2,5-dione, 3,6-dimethyl-", "p-Dioxane-2,5-dione, 3,6-dimethyl-", "Lactide", "Lactic acid, bimol. cyclic ester", "3,6-Dimethyl-1,4-dioxane-2,5-dione", "3,6-Diketo-2,5-dimethyl-1,4-dioxane", "3,6-Dimethyl-p-dioxane-2,5-dione", "2,5-Dioxo-3,6-dimethyl-1,4-dioxane", "Propanoic acid, 2-hydroxy-, bimol. cyclic ester", "3,6-Dimethyl-2,5-dioxo-1,4-dioxane", "2,5-Dimethyl-3,6-dioxo-1,4-dioxane", "Dilactide", "DL-Lactide", "Lactoyl lactic acid", "Purasorb DL", "NSC 403080", "rac-Lactide", "Novalact", "dl-Dilactide", "DL-Dilactide", "Dimethylglycolide", "D,L-Lactide", "Olygos DMR", "Ingeo M 700"], "SMILES": "CC1C(=O)OC(C)C(=O)O1", "physical_data": {"Molecular Weight": "144.13", "Molecular Formula": "C6H8O4", "Melting Point": "129 \u00b0C"}}