{"cas_no": "95-92-1", "cn_name": "\u8349\u9178\u4e8c\u4e59\u916f", "en_name": ["Diethyl oxalate", "Ethanedioic acid, 1,2-diethyl ester", "Oxalic acid, diethyl ester", "Ethanedioic acid, diethyl ester", "Diethyl ethanedioate", "Diethyl oxalate", "Ethyl oxalate", "NSC 8851"], "SMILES": "C(C(OCC)=O)(OCC)=O", "physical_data": {"Molecular Weight": "146.14", "Molecular Formula": "C6H10O4", "Boiling Point": "185.7 \u00b0C @ Press: 760 Torr", "Melting Point": "-38.5 \u00b0C", "Density": "1.0785 g/cm\u00b3 @ Temp: 20 \u00b0C"}}