{"cas_no": "95-93-2", "cn_name": "1,2,4,5-\u56db\u7532\u82ef", "en_name": ["Durene", "Benzene, 1,2,4,5-tetramethyl-", "p-Xylene, 2,5-dimethyl-", "1,2,4,5-Tetramethylbenzene", "Durene", "Durol", "NSC 6770", "S 150", "Xinhe S 150", "SJB"], "SMILES": "CC1=C(C)C=C(C)C(C)=C1", "physical_data": {"Molecular Weight": "134.22", "Molecular Formula": "C10H14", "Boiling Point": "196.8 \u00b0C", "Melting Point": "79.3 \u00b0C"}}