{"cas_no": "95-94-3", "cn_name": "1,2,4,5-\u56db\u6c2f\u82ef", "en_name": ["1,2,4,5-Tetrachlorobenzene", "Benzene, 1,2,4,5-tetrachloro-", "1,2,4,5-Tetrachlorobenzene", "s-Tetrachlorobenzene", "NSC 27003"], "SMILES": "ClC1=C(Cl)C=C(Cl)C(Cl)=C1", "physical_data": {"Molecular Weight": "215.89", "Molecular Formula": "C6H2Cl4", "Boiling Point": "244.5 \u00b0C", "Melting Point": "139.5 \u00b0C", "Density": "183.3 g/cm\u00b3"}}