{"cas_no": "950-37-8", "cn_name": "\u6740\u6251\u78f7", "en_name": ["Methidathion", "Phosphorodithioic acid, S-[(5-methoxy-2-oxo-1,3,4-thiadiazol-3(2H)-yl)methyl] O,O-dimethyl ester", "Phosphorodithioic acid, O,O-dimethyl ester, S-ester with 4-(mercaptomethyl)-2-methoxy-\u03942-1,3,4-thiadiazolin-5-one", "Geigy 13005", "GS 13005", "O,O-Dimethyl-S-(2-methoxy-\u03942-1,3,4-thiadiazolin-5-on-4-ylmethyl)dithiophosphate", "O,O-Dimethyl-S-(2-methoxy-1,3,4-thiadiazol-5(4H)-onyl-4-methyl) dithiophosphate", "O,O-Dimethylphosphorodithioate S-ester with 4-(mercaptomethyl)-2-methoxy-\u03942-1,3,4-thiadiazolin-5-one", "Methidathion", "Supracide", "O,O-Dimethyl S-[2-methoxy-1,3,4-thiadiazol-5(4H)-on-4-ylmethyl] phosphorodithioate", "O,O-Dimethyl-S-2-methyloxy-1,3,4-thiodiazol-5-(4H)-onyl-(4)-methyldithiophosphate", "Ultracid", "S-((2-Methoxy-5-oxo-\u03942-1,3,4-thiadiazolin-4-yl)methyl) O,O-dimethylphosphorodithioate", "O,O-Dimethyl phosphorodithioate S-ester with 4-(mercaptomethyl)-2-methoxy-1,3,4-thiadizaolin-5-one", "O,O-Dimethyl S-(5-methoxy-1,3,4-thiadiazole-2 (3H)-on-3-ylmethyl) dithiophosphate", "O,O-Dimethyl-S-(5-methoxy-1,3,4-thiadiazol-2(3H)-on-3-ylmethyl)dithiophosphate", "Geigy GS 13005", "O,O-Dimethyl-S-[2-methoxy-1,3,4-thiadiazol-5(4H)-onylmethyl] dithiophosphate", "Phosphorodithioic acid O,O\u2032-dimethyl ester S-ester with 4-(mercaptomethyl)-2-methoxy-\u03942-1,3,4-thiadiazolin-5-one", "Dithiophosphoric acid O,O\u2032-dimethyl-S-[(2-methoxy-1,3,4-thiadiazol-5(4H)-on-4-yl)methyl] ester", "Dithiophosphoric acid O,O\u2032-dimethyl-S-[(5-methoxy-1,3,4-thiadiazol-2(3H)-on-3-yl)methyl] ester", "O,O\u2032-Dimethyl-S-[(2-methoxy-1,3,4-thiadiazole-5(4H)-one-4-yl)methyl]dithiophosphate", "Supracid", "Ultracid 40", "DMTP", "DMTP (insecticide)", "Ultracid EC 40", "Methidation", "Suprathion", "Shapulin"], "SMILES": "P(SCN1C(=O)SC(OC)=N1)(OC)(OC)=S", "physical_data": {"Molecular Weight": "302.33", "Molecular Formula": "C6H11N2O4PS3", "Melting Point": "39-40 \u00b0C", "Density": "1.51 g/cm\u00b3 @ Temp: 20 \u00b0C"}}