{"cas_no": "950-81-2", "cn_name": "4-\u5b89\u66ff\u6bd4\u6797\u7532\u919b", "en_name": ["4-Formylantipyrine", "1H-Pyrazole-4-carboxaldehyde, 2,3-dihydro-1,5-dimethyl-3-oxo-2-phenyl-", "Antipyraldehyde", "2,3-Dihydro-1,5-dimethyl-3-oxo-2-phenyl-1H-pyrazole-4-carboxaldehyde", "2,3-Dimethyl-4-formyl-1-phenyl-5-pyrazolone", "4-Formylantipyrine", "4-Antipyrinecarboxaldehyde", "2,3-Dimethyl-5-oxo-1-phenyl-3-pyrazoline-4-carboxaldehyde", "4-Formyl-2,3-dimethyl-1-phenyl-3-pyrazoline-5-one", "4-Formyl-2,3-dimethyl-1-phenyl-3-pyrazolin-5-one", "NSC 60408", "1,5-Dimethyl-3-oxo-2-phenyl-2,3-dihydro-1H-pyrazole-4-carboxaldehyde", "1,5-Dimethyl-3-oxo-2-phenylpyrazole-4-carbaldehyde", "1,5-Dimethyl-3-oxo-2-phenyl-2,3-dihydro-1H-pyrazole-4-carbaldehyde"], "SMILES": "O=C1N(N(C)C(C)=C1C=O)C2=CC=CC=C2", "physical_data": {"Molecular Weight": "216.24", "Molecular Formula": "C12H12N2O2", "Melting Point": "161 \u00b0C"}}