{"cas_no": "950-59-4", "cn_name": "2,6-\u4e8c\u53d4\u4e01\u57fa-4-\u5def\u57fa\u82ef\u915a", "en_name": ["2,6-Bis(1,1-dimethylethyl)-4-mercaptophenol", "Phenol, 2,6-bis(1,1-dimethylethyl)-4-mercapto-", "Phenol, 2,6-di-tert-butyl-4-mercapto-", "2,6-Bis(1,1-dimethylethyl)-4-mercaptophenol", "2,6-Di-tert-butyl-4-mercaptophenol", "4-Mercapto-2,6-di-tert-butylphenol", "3,5-Di-tert-butyl-4-hydroxythiophenol", "3,5-Di-tert-butyl-4-hydroxybenzenethiol", "2,6-Di-tert-butyl-4-thiophenol", "H 327/74", "2,6-Ditert-butyl-4-sulfanylphenol"], "SMILES": "C(C)(C)(C)C1=C(O)C(C(C)(C)C)=CC(S)=C1", "physical_data": {"Molecular Weight": "238.39", "Molecular Formula": "C14H22OS", "Boiling Point": "85-97 \u00b0C @ Press: 0.2 Torr", "Melting Point": "65-69 \u00b0C"}}