{"cas_no": "950-99-2", "cn_name": "3,4-\u4e8c\u6c22-2,2,5,7,8-\u4e94\u7532\u57fa-2H-1-\u82ef\u5e76\u5421\u5583-6-\u915a", "en_name": ["2,2,5,7,8-Pentamethyl-6-chromanol", "2H-1-Benzopyran-6-ol, 3,4-dihydro-2,2,5,7,8-pentamethyl-", "6-Chromanol, 2,2,5,7,8-pentamethyl-", "3,4-Dihydro-2,2,5,7,8-pentamethyl-2H-1-benzopyran-6-ol", "6-Hydroxy-2,2,5,7,8-pentamethylchroman", "2,2,5,7,8-Pentamethyl-6-chromanol", "2,2,5,7,8-Pentamethyl-6-hydroxychroman", "TMC 5", "Chromane C1", "Chromanol", "\u03b1-C-1-Chromanol", "Chroman C1", "NSC 226236", "PMC", "2,2,5,7,8-Pentamethyl-3,4-dihydrochromen-6-ol", "APC 100"], "SMILES": "CC1=C2C(=C(C)C(O)=C1C)CCC(C)(C)O2", "physical_data": {"Molecular Weight": "220.31", "Molecular Formula": "C14H20O2", "Melting Point": "94-94.5 \u00b0C"}}