{"cas_no": "95041-90-0", "cn_name": "\u6bdb\u5170\u7d20", "en_name": ["Erianin", "Phenol, 2-methoxy-5-[2-(3,4,5-trimethoxyphenyl)ethyl]-", "2-Methoxy-5-[2-(3,4,5-trimethoxyphenyl)ethyl]phenol", "Erianin", "NSC 613744"], "SMILES": "O(C)C1=C(OC)C=C(CCC2=CC(O)=C(OC)C=C2)C=C1OC", "physical_data": {"Molecular Weight": "318.36", "Molecular Formula": "C18H22O5", "Melting Point": "78-80 \u00b0C"}}