{"cas_no": "951-82-6", "cn_name": "3,4,5-\u4e09\u7532\u6c27\u57fa\u82ef\u4e59\u9178", "en_name": ["3,4,5-Trimethoxyphenylacetic acid", "Benzeneacetic acid, 3,4,5-trimethoxy-", "Acetic acid, (3,4,5-trimethoxyphenyl)-", "3,4,5-Trimethoxybenzeneacetic acid", "3,4,5-Trimethoxyphenylacetic acid", "NSC 130961", "NSC 91017", "2-(3,4,5-Trimethoxyphenyl)acetic acid"], "SMILES": "O(C)C1=C(OC)C(OC)=CC(CC(O)=O)=C1", "physical_data": {"Molecular Weight": "226.23", "Molecular Formula": "C11H14O5", "Melting Point": "121 \u00b0C"}}