{"cas_no": "951-78-0", "cn_name": "2-\u8131\u6c27\u5c3f\u82f7", "en_name": ["Deoxyuridine", "Uridine, 2\u2032-deoxy-", "2\u2032-Deoxyuridine", "Deoxyuridine", "Uracil deoxyriboside", "2,4(1H,3H)-Pyrimidinedione, 1-(2-deoxy-\u03b2-D-erythro-pentofuranosyl)-", "2,4(1H,3H)-Pyrimidinedione, 1-(2-deoxy-\u03b2-D-ribofuranosyl)-", "Deoxyribose uracil", "2\u2032-Desoxyuridine", "1-(2-Deoxy-\u03b2-D-erythro-pentofuranosyl)uracil", "NSC 23615", "MeSH ID: D003857"], "SMILES": "O=C1N(C2OC(CO)C(O)C2)C=CC(=O)N1", "physical_data": {"Molecular Weight": "228.20", "Molecular Formula": "C9H12N2O5", "Melting Point": "163 \u00b0C"}}