{"cas_no": "951-77-9", "cn_name": "2\u2019-\u8131\u6c27\u80de\u82f7", "en_name": ["Deoxycytidine", "Cytidine, 2\u2032-deoxy-", "Cytidine, deoxy-", "2\u2032-Deoxycytidine", "Cytosine deoxyribonucleoside", "Cytosine deoxyriboside", "Deoxycytidine", "Deoxyribose cytidine", "2(1H)-Pyrimidinone, 4-amino-1-(2-deoxy-\u03b2-D-erythro-pentofuranosyl)-", "4-Amino-1-(2-deoxy-\u03b2-D-erythro-pentofuranosyl)-2(1H)-pyrimidinone", "1-(2-Deoxy-\u03b2-D-ribofuranosyl)cytosine", "Doxecitine", "39: PN: WO2022263569 PAGE: 208 claimed sequence", "MeSH ID: D003841"], "SMILES": "O=C1N(C2OC(CO)C(O)C2)C=CC(N)=N1", "physical_data": {"Molecular Weight": "227.22", "Molecular Formula": "C9H13N3O4", "Melting Point": "201-203 \u00b0C"}}