{"cas_no": "951127-25-6", "cn_name": "MK-3102 \u4e2d\u95f4\u4f531", "en_name": ["1,1-Dimethylethyl N-[(2R,3S)-2-(2,5-difluorophenyl)tetrahydro-5-oxo-2H-pyran-3-yl]carbamate", "Carbamic acid, N-[(2R,3S)-2-(2,5-difluorophenyl)tetrahydro-5-oxo-2H-pyran-3-yl]-, 1,1-dimethylethyl ester", "1,1-Dimethylethyl N-[(2R,3S)-2-(2,5-difluorophenyl)tetrahydro-5-oxo-2H-pyran-3-yl]carbamate"], "SMILES": "N(C(OC(C)(C)C)=O)C1C(OCC(=O)C1)C2=C(F)C=CC(F)=C2", "physical_data": {"Molecular Weight": "327.32", "Molecular Formula": "C16H19F2NO4", "Melting Point": "158-160 \u00b0C"}}