{"cas_no": "952-97-6", "cn_name": "4-\u785d\u57fa\u82ef\u57fa\u82ef\u786b", "en_name": ["4-Nitrophenyl phenyl sulfide", "Benzene, 1-nitro-4-(phenylthio)-", "Sulfide, p-nitrophenyl phenyl", "1-Nitro-4-(phenylthio)benzene", "p-Nitrodiphenyl sulfide", "p-Nitrophenyl phenyl sulfide", "4-Nitrodiphenyl sulfide", "4-Nitrophenyl phenyl sulfide", "Phenyl p-nitrophenyl sulfide", "Phenyl 4-nitrophenyl sulfide", "4-(Phenylthio)nitrobenzene", "4-Nitro-1-(phenylthio)benzene", "NSC 87341", "(4-Nitrophenyl)phenylsulphide", "(4-Nitrophenyl)(phenyl)sulfane", "1-Nitro-4-phenylsulfanyl-benzene", "1-Nitro-4-phenylsulfanylbenzene"], "SMILES": "S(C1=CC=C(N(=O)=O)C=C1)C2=CC=CC=C2", "physical_data": {"Molecular Weight": "231.27", "Molecular Formula": "C12H9NO2S", "Boiling Point": "288.2 \u00b0C @ Press: 100 Torr", "Melting Point": "56 \u00b0C"}}