{"cas_no": "952-06-7", "cn_name": "\u4e8c\u82ef\u4e59\u916e\u809f(\u5e15\u745e\u6614\u5e03\u94a0\u4e2d\u95f4\u4f53)", "en_name": ["Ethanone, 1,2-diphenyl-, oxime", "Ethanone, 1,2-diphenyl-, oxime", "Acetophenone, 2-phenyl-, oxime", "Benzyl phenyl ketoxime", "Benzyl phenyl ketone oxime", "2-Phenylacetophenone oxime", "1,2-Diphenylethanone oxime", "NSC 135001", "NSC 36666", "1,2-Diphenyl-1-ethanoneoxime", "1,2-Diphenyl-1-ethanone oxime"], "SMILES": "C(CC1=CC=CC=C1)(=NO)C2=CC=CC=C2", "physical_data": {"Molecular Weight": "211.26", "Molecular Formula": "C14H13NO", "Melting Point": "98 \u00b0C"}}