{"cas_no": "952-47-6", "cn_name": "2-\u82ef\u57fa\u5076\u6c2e-4-\u7532\u57fa\u82ef\u915a", "en_name": ["4-Methyl-2-(2-phenyldiazenyl)phenol", "Phenol, 4-methyl-2-(2-phenyldiazenyl)-", "p-Cresol, 2-(phenylazo)-", "Phenol, 4-methyl-2-(phenylazo)-", "4-Methyl-2-(2-phenyldiazenyl)phenol", "C.I. 11850", "Oil Yellow APC", "2-Hydroxy-5-methylazobenzene", "2-Phenylazo-4-methylphenol", "4-Methyl-2-(phenylazo)phenol", "2-Phenylazo-4-methyl-1-phenol", "C.I. Solvent Yellow 11", "Solvent Yellow 11", "NSC 85564"], "SMILES": "N(=NC1=CC=CC=C1)C2=C(O)C=CC(C)=C2", "physical_data": {"Molecular Weight": "212.25", "Molecular Formula": "C13H12N2O", "Melting Point": "108.5 \u00b0C"}}