{"cas_no": "95233-18-4", "cn_name": "\u963f\u6258\u4f10\u918c", "en_name": ["Atovaquone", "1,4-Naphthalenedione, 2-[trans-4-(4-chlorophenyl)cyclohexyl]-3-hydroxy-", "1,4-Naphthalenedione, 2-[4-(4-chlorophenyl)cyclohexyl]-3-hydroxy-, trans-", "2-[trans-4-(4-Chlorophenyl)cyclohexyl]-3-hydroxy-1,4-naphthalenedione", "566C80", "566C", "Atovaquone", "Mepron", "Mepron (antipneumocystic)", "BW 556C-80", "BW 566C", "Acuvel", "Wellvone", "Meprone", "Samtirel", "MeSH ID: D053626"], "SMILES": "O=C1C(=C(O)C(=O)C=2C1=CC=CC2)C3CCC(CC3)C4=CC=C(Cl)C=C4", "physical_data": {"Molecular Weight": "366.84", "Molecular Formula": "C22H19ClO3", "Melting Point": "216-219 \u00b0C"}}