{"cas_no": "95258-15-4", "cn_name": "\u9e26\u80c6\u5b50\u5185\u8102A", "en_name": ["Yadanzioside A", "Picras-1-en-21-oic acid, 13,20-epoxy-2-(\u03b2-D-glucopyranosyloxy)-11,12-dihydroxy-15-(3-methyl-1-oxobutoxy)-3,16-dioxo-, methyl ester, (11\u03b2,12\u03b1,15\u03b2)-", "2H-3,11c-(Epoxymethano)phenanthro[10,1-bc]pyran, picras-1-en-21-oic acid deriv.", "Yadanzioside A"], "SMILES": "C(OC)(=O)C12C3C4(C(C5(C)C(CC4OC(=O)C3OC(CC(C)C)=O)C(C)C(=O)C(OC6OC(CO)C(O)C(O)C6O)=C5)C(O)C1O)CO2", "physical_data": {"Molecular Weight": "684.68", "Molecular Formula": "C32H44O16", "Melting Point": "223-226 \u00b0C"}}