{"cas_no": "952616-39-6", "cn_name": "(\u00b1)-\u987a-3-(\u82c4\u6c27\u7fb0\u6c28\u57fa)\u73af\u5df1\u7532\u9178", "en_name": ["rel-(1R,3S)-3-[[(Phenylmethoxy)carbonyl]amino]cyclohexanecarboxylic acid", "Cyclohexanecarboxylic acid, 3-[[(phenylmethoxy)carbonyl]amino]-, (1R,3S)-rel-", "rel-(1R,3S)-3-[[(Phenylmethoxy)carbonyl]amino]cyclohexanecarboxylic acid", "cis-3-(((Benzyloxy)carbonyl)amino)cyclohexanecarboxylic acid"], "SMILES": "N(C(OCC1=CC=CC=C1)=O)C2CC(C(O)=O)CCC2", "physical_data": {"Molecular Weight": "277.32", "Molecular Formula": "C15H19NO4", "Melting Point": "113-114 \u00b0C"}}