{"cas_no": "95266-40-3", "cn_name": "\u6297\u5012\u916f", "en_name": ["Trinexapac-ethyl", "Cyclohexanecarboxylic acid, 4-(cyclopropylhydroxymethylene)-3,5-dioxo-, ethyl ester", "CGA 163935", "Cimectacarb", "Trinexapac-ethyl", "Moddus", "Primo", "Primo Maxx"], "SMILES": "C(O)(=C1C(=O)CC(C(OCC)=O)CC1=O)C2CC2", "physical_data": {"Molecular Weight": "252.26", "Molecular Formula": "C13H16O5", "Boiling Point": "&gt;270 \u00b0C", "Melting Point": "36 \u00b0C", "Density": "1.3 g/cm\u00b3"}}