{"cas_no": "95298-47-8", "cn_name": "\u523a\u68a8\u82f7", "en_name": ["Kajiichigoside F1", "Urs-12-en-28-oic acid, 2,3,19-trihydroxy-, \u03b2-D-glucopyranosyl ester, (2\u03b1,3\u03b1)-", "Kajiichigoside F1", "2\u03b1,3\u03b1,19\u03b1-Trihydroxylurs-12-en-28-oic acid-28-O-\u03b2-D-glucopyranoside", "2\u03b1,3\u03b1,19\u03b1-Trihydroxyurs-12-en-28-oic acid ester glucoside", "Euscaphic acid 28-O-\u03b2-D-glucopyranoside", "28-O-\u03b2-D-Glucopyranosyleuscaphic acid", "2\u03b1,3\u03b1,19\u03b1-Trihydroxyurs-12-en-28-oic acid 28-D-glucopyranoside"], "SMILES": "C(OC1OC(CO)C(O)C(O)C1O)(=O)C23C(C=4C(C)(CC2)C5(C)C(CC4)C6(C)C(CC5)C(C)(C)C(O)C(O)C6)C(C)(O)C(C)CC3", "physical_data": {"Molecular Weight": "650.84", "Molecular Formula": "C36H58O10", "Melting Point": "230-232 \u00b0C"}}