{"cas_no": "953-26-4", "cn_name": "4-\u785d\u57fa\u8089\u6842\u9178\u4e59\u916f", "en_name": ["Ethyl 3-(4-nitrophenyl)-2-propenoate", "2-Propenoic acid, 3-(4-nitrophenyl)-, ethyl ester", "Cinnamic acid, p-nitro-, ethyl ester", "Ethyl 3-(4-nitrophenyl)-2-propenoate", "Ethyl p-nitrocinnamate", "Ethyl 4-nitrocinnamate", "3-(4-Nitrophenyl)acrylic acid ethyl ester", "NSC 4697", "NSC 636709", "3-(4-Nitrophenyl)-2-propenoic acid ethyl ester"], "SMILES": "C(=CC(OCC)=O)C1=CC=C(N(=O)=O)C=C1", "physical_data": {"Molecular Weight": "221.21", "Molecular Formula": "C11H11NO4", "Melting Point": "138 \u00b0C"}}