{"cas_no": "953-91-3", "cn_name": "P-\u7532\u82ef\u78fa\u9178\u73af\u5df1\u916f", "en_name": ["Cyclohexyl p-toluenesulfonate", "Benzenesulfonic acid, 4-methyl-, cyclohexyl ester", "p-Toluenesulfonic acid, cyclohexyl ester", "Cyclohexanol, p-toluenesulfonate", "Cyclohexyl tosylate", "Cyclohexyl p-toluenesulfonate", "Cyclohexyl 4-toluenesulfonate", "Cyclohexyl p-methylbenzenesulfonate", "NSC 122484", "NSC 127370", "Cyclohexyl 4-methylbenzenesulfonate", "WPAG 618"], "SMILES": "S(OC1CCCCC1)(=O)(=O)C2=CC=C(C)C=C2", "physical_data": {"Molecular Weight": "254.35", "Molecular Formula": "C13H18O3S", "Melting Point": "44-45 \u00b0C"}}