{"cas_no": "95306-64-2", "cn_name": "4-\u6c28\u57fa-5-\u7532\u57fa-2-\u7f9f\u57fa\u5421\u5576", "en_name": ["4-Amino-5-methyl-2(1H)-pyridinone", "2(1H)-Pyridinone, 4-amino-5-methyl-", "4-Amino-5-methyl-2(1H)-pyridinone", "2-Hydroxy-4-amino-5-methylpyridine", "4-Amino-5-methyl-1H-pyridin-2-one"], "SMILES": "NC=1C(C)=CNC(=O)C1", "physical_data": {"Molecular Weight": "124.14", "Molecular Formula": "C6H8N2O", "Melting Point": "&gt;260 \u00b0C"}}