{"cas_no": "95337-70-5", "cn_name": "4-(2,5-\u4e8c\u7532\u57fa\u5421\u54af\u57fa)\u82ef\u7532\u919b", "en_name": ["4-(2,5-Dimethyl-1H-pyrrol-1-yl)benzaldehyde", "Benzaldehyde, 4-(2,5-dimethyl-1H-pyrrol-1-yl)-", "4-(2,5-Dimethyl-1H-pyrrol-1-yl)benzaldehyde", "4-(2,5-Dimethylpyrrol-1-yl)benzaldehyde"], "SMILES": "CC=1N(C2=CC=C(C=O)C=C2)C(C)=CC1", "physical_data": {"Molecular Weight": "199.25", "Molecular Formula": "C13H13NO", "Melting Point": "79-80.5 \u00b0C"}}