{"cas_no": "953787-51-4", "cn_name": "\u6cee\u6258\u62c9\u5511\u6742\u8d2806", "en_name": ["6-(Difluoromethoxy)-2-[[(3,4-dimethoxy-1-oxido-2-pyridinyl)methyl]thio]-1H-benzimidazole", "1H-Benzimidazole, 6-(difluoromethoxy)-2-[[(3,4-dimethoxy-1-oxido-2-pyridinyl)methyl]thio]-", "6-(Difluoromethoxy)-2-[[(3,4-dimethoxy-1-oxido-2-pyridinyl)methyl]thio]-1H-benzimidazole", "2-[[(3,4-Dimethoxy-1-oxopyridin-2-yl)methyl]sulfanyl]-5-difluoromethoxy-1H-benzimidazole"], "SMILES": "S(CC1=C(OC)C(OC)=CC=N1=O)C=2NC=3C(N2)=CC(OC(F)F)=CC3", "physical_data": {"Molecular Weight": "383.37", "Molecular Formula": "C16H15F2N3O4S", "Melting Point": "120 \u00b0C (decomp)"}}