{"cas_no": "953787-60-5", "cn_name": "\u6cee\u6258\u62c9\u5511N-\u6c27\u5316\u7269", "en_name": ["Pantoprazole N-oxide", "1H-Benzimidazole, 6-(difluoromethoxy)-2-[[(3,4-dimethoxy-1-oxido-2-pyridinyl)methyl]sulfinyl]-", "6-(Difluoromethoxy)-2-[[(3,4-dimethoxy-1-oxido-2-pyridinyl)methyl]sulfinyl]-1H-benzimidazole", "Pantoprazole N-oxide"], "SMILES": "S(CC1=C(OC)C(OC)=CC=N1=O)(=O)C=2NC=3C(N2)=CC=C(OC(F)F)C3", "physical_data": {"Molecular Weight": "399.37", "Molecular Formula": "C16H15F2N3O5S", "Melting Point": "158-159 \u00b0C"}}