{"cas_no": "95399-71-6", "cn_name": "\u798f\u8f9b\u666e\u5229\u62c9", "en_name": ["Fosinoprilat", "L-Proline, 4-cyclohexyl-1-[2-[hydroxy(4-phenylbutyl)phosphinyl]acetyl]-, (4S)-", "L-Proline, 4-cyclohexyl-1-[[hydroxy(4-phenylbutyl)phosphinyl]acetyl]-, trans-", "L-Proline, 4-cyclohexyl-1-[[hydroxy(4-phenylbutyl)phosphinyl]acetyl]-, (4S)-", "(4S)-4-Cyclohexyl-1-[2-[hydroxy(4-phenylbutyl)phosphinyl]acetyl]-L-proline", "Fosfenopril", "SQ 27519", "Fosinoprilic acid", "Fosinoprilat"], "SMILES": "C(CP(CCCCC1=CC=CC=C1)(=O)O)(=O)N2CC(CC2C(O)=O)C3CCCCC3", "physical_data": {"Molecular Weight": "435.49", "Molecular Formula": "C23H34NO5P", "Melting Point": "149-153 \u00b0C"}}