{"cas_no": "954-16-5", "cn_name": "2,4,6-\u4e09\u7532\u57fa\u4e8c\u82ef\u7532\u916e", "en_name": ["2,4,6-Trimethylbenzophenone", "Methanone, phenyl(2,4,6-trimethylphenyl)-", "Benzophenone, 2,4,6-trimethyl-", "Phenyl(2,4,6-trimethylphenyl)methanone", "Mesityl phenyl ketone", "2,4,6-Trimethylbenzophenone", "Benzoylmesitylene", "Phenyl 2,4,6-trimethylphenyl ketone", "NSC 26923"], "SMILES": "C(=O)(C1=C(C)C=C(C)C=C1C)C2=CC=CC=C2", "physical_data": {"Molecular Weight": "224.30", "Molecular Formula": "C16H16O", "Boiling Point": "326.5-327 \u00b0C @ Press: 777 Torr", "Melting Point": "35 \u00b0C"}}