{"cas_no": "955-10-2", "cn_name": "3-PHENYLCOUMARIN", "en_name": ["3-Phenylcoumarin", "2H-1-Benzopyran-2-one, 3-phenyl-", "Coumarin, 3-phenyl-", "3-Phenyl-2H-1-benzopyran-2-one", "3-Phenylcoumarin", "NSC 14860", "3-Phenyl-chromen-2-one", "3-Phenyl-2-chromenone", "3-Phenylchromen-2-one"], "SMILES": "O=C1C(=CC=2C(O1)=CC=CC2)C3=CC=CC=C3", "physical_data": {"Molecular Weight": "222.24", "Molecular Formula": "C15H10O2", "Melting Point": "140-141 \u00b0C"}}