{"cas_no": "955-83-9", "cn_name": "2,5-\u4e8c\u82ef\u57fa\u544b\u5583", "en_name": ["2,5-Diphenylfuran", "Furan, 2,5-diphenyl-", "2,5-Diphenylfuran", "PPF", "NSC 97358"], "SMILES": "C=1(OC(=CC1)C2=CC=CC=C2)C3=CC=CC=C3", "physical_data": {"Molecular Weight": "220.27", "Molecular Formula": "C16H12O", "Boiling Point": "344 \u00b0C", "Melting Point": "91 \u00b0C"}}