{"cas_no": "95530-58-8", "cn_name": "(R)-(+)-4-\u5f02\u4e19\u57fa-2-\u6076\u5511\u5549\u916e", "en_name": ["(R)-4-Isopropyl-2-oxazolidinone", "2-Oxazolidinone, 4-(1-methylethyl)-, (4R)-", "2-Oxazolidinone, 4-(1-methylethyl)-, (R)-", "(4R)-4-(1-Methylethyl)-2-oxazolidinone", "(R)-4-Isopropyl-2-oxazolidinone", "(4R)-(+)-4-Isopropyl-2-oxazolidone", "(4R)-4-Isopropyl-2-oxazolidinone", "(4R)-4-Isopropyl-1,3-oxazolidin-2-one", "(4R)-4-Isopropyloxazolidin-2-one", "(R)-4-Isopropyloxazolidin-2-one", "(4R)-4-(Propan-2-yl)-1,3-oxazolidin-2-one", "(R)-(+)-4-Isopropyl-2-oxazolidinone", "(4R)-4-Propan-2-yl-1,3-oxazolidin-2-one"], "SMILES": "C(C)(C)C1NC(=O)OC1", "physical_data": {"Molecular Weight": "129.16", "Molecular Formula": "C6H11NO2", "Melting Point": "70-72 \u00b0C"}}