{"cas_no": "956-89-8", "cn_name": "\u03b1,\u03b1-\u4e8c\u82ef\u57fa-\u03b3-\u4e01\u5185\u916f", "en_name": ["Dihydro-3,3-diphenyl-2(3H)-furanone", "2(3H)-Furanone, dihydro-3,3-diphenyl-", "Butyric acid, 4-hydroxy-2,2-diphenyl-, \u03b3-lactone", "Dihydro-3,3-diphenyl-2(3H)-furanone", "\u03b1,\u03b1-Diphenyl-\u03b3-butyrolactone", "3,3-Diphenyltetrahydro-2-furanone", "3,3-Diphenyldihydrofuran-2(3H)-one", "2,2-Diphenylbutyrolactone", "3,3-Diphenyloxolan-2-one"], "SMILES": "O=C1C(CCO1)(C2=CC=CC=C2)C3=CC=CC=C3", "physical_data": {"Molecular Weight": "238.28", "Molecular Formula": "C16H14O2", "Melting Point": "80-81 \u00b0C"}}