{"cas_no": "956-04-7", "cn_name": "4-\u6c2f\u67e5\u8033\u916e", "en_name": ["4-Chlorochalcone", "2-Propen-1-one, 3-(4-chlorophenyl)-1-phenyl-", "Chalcone, 4-chloro-", "3-(4-Chlorophenyl)-1-phenyl-2-propen-1-one", "4-Chlorochalcone", "2-(4-Chlorobenzylidene)acetophenone", "p-Chlorostyryl phenyl ketone", "p-Chlorochalcone", "1-Phenyl-3-(4-chlorophenyl)prop-2-en-1-one", "(4-Chlorobenzylidene)acetophenone", "3-(p-Chlorophenyl)-1-phenyl-2-propen-1-one", "4-Chlorostyryl phenyl ketone", "NSC 2643", "NSC 636920", "1-Phenyl-3-(4-chlorophenyl)-2-propenone"], "SMILES": "C(C=CC1=CC=C(Cl)C=C1)(=O)C2=CC=CC=C2", "physical_data": {"Molecular Weight": "242.70", "Molecular Formula": "C15H11ClO", "Melting Point": "115-116 \u00b0C"}}