{"cas_no": "956-90-1", "cn_name": "\u82ef\u73af\u5229\u5b9a\u76d0\u9178\u76d0", "en_name": ["Phencyclidine hydrochloride", "Piperidine, 1-(1-phenylcyclohexyl)-, hydrochloride (1:1)", "Piperidine, 1-(1-phenylcyclohexyl)-, hydrochloride", "GP 121", "CI 395", "Elysion", "Phencyclidine hydrochloride", "Phenylcyclidine hydrochloride", "1-(1-Phenylcyclohexyl)piperidine hydrochloride", "Sernyl hydrochloride", "Sernyl", "Sernylan", "NIH 9580", "MCV 4158", "Phencyclidine monohydrochloride", "PCP hydrochloride", "NSC 40902"], "SMILES": "C1(CCCCC1)(C2=CC=CC=C2)N3CCCCC3.Cl", "physical_data": {"Molecular Weight": "", "Molecular Formula": "C17H25N.ClH", "Melting Point": "233-235 \u00b0C"}}