{"cas_no": "956003-79-5", "cn_name": "5-\u6eb4-8-\u6c2f\u5f02\u55b9\u5549", "en_name": ["5-Bromo-8-chloroisoquinoline", "Isoquinoline, 5-bromo-8-chloro-", "5-Bromo-8-chloroisoquinoline"], "SMILES": "BrC=1C2=C(C(Cl)=CC1)C=NC=C2", "physical_data": {"Molecular Weight": "242.50", "Molecular Formula": "C9H5BrClN", "Melting Point": "111-114 \u00b0C"}}