{"cas_no": "956274-94-5", "cn_name": "CS-1660", "en_name": ["\u03b1,\u03b1-Dimethyl-2-[2-[(1E)-2-[4-(trifluoromethyl)phenyl]ethenyl]-1H-benzimidazol-6-yl]benzenemethanol", "Benzenemethanol, \u03b1,\u03b1-dimethyl-2-[2-[(1E)-2-[4-(trifluoromethyl)phenyl]ethenyl]-1H-benzimidazol-6-yl]-", "\u03b1,\u03b1-Dimethyl-2-[2-[(1E)-2-[4-(trifluoromethyl)phenyl]ethenyl]-1H-benzimidazol-6-yl]benzenemethanol", "JNJ 39439335", "Mavatrep"], "SMILES": "C(=CC1=CC=C(C(F)(F)F)C=C1)C=2NC=3C(N2)=CC=C(C3)C4=C(C(C)(C)O)C=CC=C4", "physical_data": {"Molecular Weight": "422.44", "Molecular Formula": "C25H21F3N2O", "Melting Point": "250-251 \u00b0C"}}