{"cas_no": "956317-36-5", "cn_name": "5-\u7532\u57fa-2-(2H-1,2,3-\u4e09\u5511-2-\u57fa)\u82ef\u7532\u9178", "en_name": ["5-Methyl-2-(2H-1,2,3-triazol-2-yl)benzoic acid", "Benzoic acid, 5-methyl-2-(2H-1,2,3-triazol-2-yl)-", "5-Methyl-2-(2H-1,2,3-triazol-2-yl)benzoic acid", "2-(2H-1,2,3-Triazol-2-yl)-5-methylbenzoic acid", "5-Methyl-2-1,2,3-triazol-2-ylbenzoic acid"], "SMILES": "C(O)(=O)C1=C(C=CC(C)=C1)N2N=CC=N2", "physical_data": {"Molecular Weight": "203.20", "Molecular Formula": "C10H9N3O2", "Melting Point": "174-176 \u00b0C"}}