{"cas_no": "95635-56-6", "cn_name": "\u76d0\u9178\u96f7\u8bfa\u55ea", "en_name": ["Ranolazine hydrochloride", "1-Piperazineacetamide, N-(2,6-dimethylphenyl)-4-[2-hydroxy-3-(2-methoxyphenoxy)propyl]-, hydrochloride (1:2)", "1-Piperazineacetamide, N-(2,6-dimethylphenyl)-4-[2-hydroxy-3-(2-methoxyphenoxy)propyl]-, dihydrochloride, (\u00b1)-", "1-Piperazineacetamide, N-(2,6-dimethylphenyl)-4-[2-hydroxy-3-(2-methoxyphenoxy)propyl]-, dihydrochloride", "(\u00b1)-RS 43285-193", "RS 43285", "RS 43285-193", "Ranolazine hydrochloride", "Ranolazine dihydrochloride"], "SMILES": "O(CC(CN1CCN(CC(NC2=C(C)C=CC=C2C)=O)CC1)O)C3=C(OC)C=CC=C3.Cl", "physical_data": {"Molecular Weight": "", "Molecular Formula": "C24H33N3O4.2ClH", "Melting Point": "164-166 \u00b0C"}}