{"cas_no": "95652-81-6", "cn_name": "6-\u6c2f-2-\u7532\u6c27\u57fa-\u5421\u5576-3-\u7532\u919b", "en_name": ["6-Chloro-2-methoxy-3-pyridinecarboxaldehyde", "3-Pyridinecarboxaldehyde, 6-chloro-2-methoxy-", "6-Chloro-2-methoxy-3-pyridinecarboxaldehyde", "6-Chloro-3-formyl-2-methoxypyridine", "6-Chloro-2-methoxynicotinaldehyde"], "SMILES": "C(=O)C1=C(OC)N=C(Cl)C=C1", "physical_data": {"Molecular Weight": "171.58", "Molecular Formula": "C7H6ClNO2", "Boiling Point": "90 \u00b0C @ Press: 3 Torr", "Melting Point": "62-64 \u00b0C"}}