{"cas_no": "957-75-5", "cn_name": "5-\u6eb4\u5c3f\u82f7", "en_name": ["5-Bromouridine", "Uridine, 5-bromo-", "5-Bromouridine", "(-)-5-Bromouridine", "NSC 38296", "4-Amino-5-bromo-1-[3,4-dihydroxy-5-(hydroxymethyl)oxolan-2-yl]pyrimidin-2-one"], "SMILES": "OC1C(OC(CO)C1O)N2C(=O)NC(=O)C(Br)=C2", "physical_data": {"Molecular Weight": "323.10", "Molecular Formula": "C9H11BrN2O6", "Melting Point": "181-184 \u00b0C (decomp)"}}