{"cas_no": "957-56-2", "cn_name": "\u6c1f\u831a\u4e8c\u916e", "en_name": ["Fluindione", "1H-Indene-1,3(2H)-dione, 2-(4-fluorophenyl)-", "1,3-Indandione, 2-(p-fluorophenyl)-", "2-(4-Fluorophenyl)-1H-indene-1,3(2H)-dione", "Previscan", "2-(p-Fluorophenyl)-1,3-indandione", "LM 123", "Fluindione"], "SMILES": "O=C1C(C(=O)C=2C1=CC=CC2)C3=CC=C(F)C=C3", "physical_data": {"Molecular Weight": "240.23", "Molecular Formula": "C15H9FO2", "Melting Point": "120 \u00b0C"}}