{"cas_no": "957-77-7", "cn_name": "5-\u7f9f\u57fa\u5c3f\u82f7", "en_name": ["5-Hydroxyuridine", "Uridine, 5-hydroxy-", "Isobarbituric acid, 1-\u03b2-D-ribofuranosyl-", "5-Hydroxyuridine"], "SMILES": "OC1C(OC(CO)C1O)N2C(=O)NC(=O)C(O)=C2", "physical_data": {"Molecular Weight": "260.20", "Molecular Formula": "C9H12N2O7", "Melting Point": "242-245 \u00b0C"}}