{"cas_no": "957-51-7", "cn_name": "\u53cc\u82ef\u9170\u8349\u80fa", "en_name": ["Diphenamid", "Benzeneacetamide, N,N-dimethyl-\u03b1-phenyl-", "Diphenamide", "Acetamide, N,N-dimethyl-2,2-diphenyl-", "N,N-Dimethyl-\u03b1-phenylbenzeneacetamide", "Enide 50", "L 34314", "Lilly 34,314", "N,N-Dimethyl-2,2-diphenylacetamide", "Dimid", "Diphenamid", "Dymid", "Dif 4", "Enide 50W", "Enide", "N,N-Dimethyl-\u03b1,\u03b1-diphenylacetamide", "N,N-Dimethyldiphenylacetamide", "Fenam", "Zarur", "Rideon", "Diherbid", "Diphenylacetic acid dimethylamide"], "SMILES": "C(C(N(C)C)=O)(C1=CC=CC=C1)C2=CC=CC=C2", "physical_data": {"Molecular Weight": "239.31", "Molecular Formula": "C16H17NO", "Melting Point": "134.5-135.5 \u00b0C", "Density": "1.17 g/cm\u00b3 @ Temp: 23.3 \u00b0C"}}