{"cas_no": "95715-86-9", "cn_name": "(R)-(-)-3-BOC-4-\u7532\u6c27\u7fb0\u57fa-2,2-\u4e8c\u7532\u57fa-1,3-\u6076\u5511\u70f7", "en_name": ["(R)-Methyl-3-(tert-butoxycarbonyl)-2,2-dimethyl-4-oxazolidinecarboxylate", "3,4-Oxazolidinedicarboxylic acid, 2,2-dimethyl-, 3-(1,1-dimethylethyl) 4-methyl ester, (4R)-", "3,4-Oxazolidinedicarboxylic acid, 2,2-dimethyl-, 3-(1,1-dimethylethyl) 4-methyl ester, (R)-", "Methyl (R)-(+)-3-(tert-butoxycarbonyl)-2,2-dimethyl-4-oxazolidinecarboxylate", "(R)-Methyl-3-(tert-butoxycarbonyl)-2,2-dimethyl-4-oxazolidinecarboxylate", "(R)-2,2-Dimethyloxazolidine-3,4-dicarboxylic acid 3-tert-butyl ester 4-methyl ester", "3-O-tert-Butyl 4-O-methyl (4R)-2,2-dimethyl-1,3-oxazolidine-3,4-dicarboxylate"], "SMILES": "C(OC(C)(C)C)(=O)N1C(C(OC)=O)COC1(C)C", "physical_data": {"Molecular Weight": "259.30", "Molecular Formula": "C12H21NO5", "Boiling Point": "101-102 \u00b0C @ Press: 2 Torr"}}