{"cas_no": "95715-87-0", "cn_name": "(R)-4-\u7532\u9170\u57fa-2,2-\u4e8c\u7532\u57fa-3-\u6076\u5511\u5549\u7fa7\u9178\u53d4\u4e01\u916f", "en_name": ["(R)-Garner aldehyde", "3-Oxazolidinecarboxylic acid, 4-formyl-2,2-dimethyl-, 1,1-dimethylethyl ester, (4R)-", "3-Oxazolidinecarboxylic acid, 4-formyl-2,2-dimethyl-, 1,1-dimethylethyl ester, (R)-", "1,1-Dimethylethyl (R)-4-formyl-2,2-dimethyl-3-oxazolidinecarboxylate", "(R)-Garner aldehyde", "tert-Butyl (R)-4-formyl-2,2-dimethyloxazolidine-3-carboxylate", "ent-Garner's aldehyde", "tert-Butyl (4R)-4-formyl-2,2-dimethyloxazolidine-3-carboxylate", "(R)-3-tert-Butoxycarbonyl-2,2-dimethyl-4-formyloxazolidine", "(R)-2,2-Dimethyl-3-tert-butoxycarbonyl-1,3-oxazolidine-4-carboxaldehyde", "(R)-4-Formyl-2,2-dimethyloxazolidine-3-carboxylic acid tert-butyl ester", "(4R)-4-Formyl-2,2-dimethyl-1,3-oxazolidine-3-carboxylic acid tert-butyl ester", "tert-Butyl (4R)-4-formyl-2,2-dimethyl-1,3-oxazolidine-3-carboxylate", "tert-Butyl (4R)-4-formyl-2,2-dimethyloxazolidine-3-carboxylate", "tert-Butyl (R)-(+)-4-formyl-2,2-dimethyloxazolidine-3-carboxylate", "(R)-Garner's aldehyde", "tert-Butyl (R)-4-formyl-2,2-dimethyloxazolidine-3-carboxylate", "(R)-(+)-3-tert-Butoxycarbonyl-2,2-dimethyloxazolidine-4-carboxaldehyde", "(R)-tert-Butyl 4-formyl-2,2-dimethyloxazolidine-3-carboxylate", "(R)-tert-Butyl 4-formyl-2,2-dimethyloxazolidine-3-carboxylate", "(R)-(+)-3-Boc-2,2-dimethyloxazolidine-4-carboxaldehyde"], "SMILES": "C(OC(C)(C)C)(=O)N1C(C=O)COC1(C)C", "physical_data": {"Molecular Weight": "229.27", "Molecular Formula": "C11H19NO4", "Boiling Point": "83-88 \u00b0C @ Press: 1.0-1.4 Torr"}}