{"cas_no": "95737-68-1", "cn_name": "\u5421\u4e19\u919a", "en_name": ["Pyriproxyfen", "Pyridine, 2-[1-methyl-2-(4-phenoxyphenoxy)ethoxy]-", "2-[1-Methyl-2-(4-phenoxyphenoxy)ethoxy]pyridine", "S 31183", "Pyriproxyfen", "S 9138", "SK 591", "BCP 8702", "OMS 3019", "Sumilarv", "Tiger 10EC", "Tiger (insecticide)", "Tiger", "Admiral", "S 71639", "Nylar", "Nemesis", "Knack", "Lano Tape", "Esteem", "Juventox", "Distance", "Seize", "Pluto MC", "Archer IGR", "Distance IGR", "NyGuard IGR", "Juvinal", "BRAI", "BRAI 10EC", "2-((1-(4-Phenoxyphenoxy)propan-2-yl)oxy)pyridine", "(\u00b1)-Pyriproxyfen"], "SMILES": "O(C1=CC=C(OCC(OC2=CC=CC=N2)C)C=C1)C3=CC=CC=C3", "physical_data": {"Molecular Weight": "321.37", "Molecular Formula": "C20H19NO3", "Boiling Point": "230-250 \u00b0C @ Press: 0.2 Torr", "Melting Point": "45-47 \u00b0C", "Density": "1.23 g/cm\u00b3 @ Temp: 20 \u00b0C"}}