{"cas_no": "958-09-8", "cn_name": "2'-\u8131\u6c27\u817a\u82f7", "en_name": ["Deoxyadenosine", "Adenosine, 2\u2032-deoxy-", "2\u2032-Deoxyadenosine", "Adenine deoxyribonucleoside", "Adenine deoxyribose", "Deoxyadenosine", "\u03b2-D-erythro-Pentofuranoside, adenine-9 2-deoxy-", "9H-Purin-6-amine, 9-(2-deoxy-\u03b2-D-erythro-pentofuranosyl)-", "9H-Purin-6-amine, 9-(2-deoxy-\u03b2-D-ribofuranosyl)-", "\u03b2-D-Ribofuranose, 1-(6-amino-9H-purin-9-yl)-1,2-dideoxy-", "Adenyldeoxyriboside", "Desoxyadenosine", "9-(2-Deoxy-\u03b2-D-erythro-pentofuranosyl)adenine", "dA", "NSC 141848", "NSC 143510", "NSC 83258", "167: PN: US20040053876 SEQID: 167 unclaimed DNA", "NQZ-035", "9: PN: WO2022247943 SEQID: 61 claimed sequence", "78: PN: WO2022263569 PAGE: 208 claimed sequence"], "SMILES": "NC1=C2C(N(C=N2)C3OC(CO)C(O)C3)=NC=N1", "physical_data": {"Molecular Weight": "251.24", "Molecular Formula": "C10H13N5O3", "Melting Point": "187.5-189.0 \u00b0C"}}