{"cas_no": "958-60-1", "cn_name": "\u7532\u57fa\u4e59\u57fa\u916e-DNPH", "en_name": ["2-Butanone, 2-(2,4-dinitrophenyl)hydrazone", "2-Butanone, 2-(2,4-dinitrophenyl)hydrazone", "2-Butanone, (2,4-dinitrophenyl)hydrazone", "Ethyl methyl ketone (2,4-dinitrophenyl)hydrazone", "Butanone 2,4-dinitrophenylhydrazone", "Methyl ethyl ketone 2,4-dinitrophenylhydrazone", "NSC 109807", "NSC 404126"], "SMILES": "N(=O)(=O)C1=C(NN=C(CC)C)C=CC(N(=O)=O)=C1", "physical_data": {"Molecular Weight": "252.23", "Molecular Formula": "C10H12N4O4", "Melting Point": "115-115.5 \u00b0C"}}