{"cas_no": "95809-78-2", "cn_name": "6,8-\u53cc(\u82c4\u786b\u57fa)\u8f9b\u9178", "en_name": ["6,8-Bis[(phenylmethyl)thio]octanoic acid", "Octanoic acid, 6,8-bis[(phenylmethyl)thio]-", "Octanoic acid, 6,8-bis(benzylthio)-", "6,8-Bis[(phenylmethyl)thio]octanoic acid", "CPI 613", "Devimistat", "6,8-Bis-benzylthio-octanoic acid", "SML 0404"], "SMILES": "C(SCC1=CC=CC=C1)(CCSCC2=CC=CC=C2)CCCCC(O)=O", "physical_data": {"Molecular Weight": "388.59", "Molecular Formula": "C22H28O2S2", "Melting Point": "50-57 \u00b0C"}}