{"cas_no": "95847-70-4", "cn_name": "\u4f9d\u666e\u897f\u9686", "en_name": ["Ipsapirone", "1,2-Benzisothiazol-3(2H)-one, 2-[4-[4-(2-pyrimidinyl)-1-piperazinyl]butyl]-, 1,1-dioxide", "Ipsapirone"], "SMILES": "O=S1(=O)C=2C(C(=O)N1CCCCN3CCN(CC3)C=4N=CC=CN4)=CC=CC2", "physical_data": {"Molecular Weight": "401.48", "Molecular Formula": "C19H23N5O3S", "Melting Point": "137-138 \u00b0C"}}