{"cas_no": "95885-13-5", "cn_name": "5-\u4e59\u57fa-4-(2-\u82ef\u6c27\u57fa\u4e59\u57fa)-2H-1,2,4-\u4e09\u6c2e\u5511-3(4H)-\u916e", "en_name": ["5-Ethyl-2,4-dihydro-4-(2-phenoxyethyl)-3H-1,2,4-triazol-3-one", "3H-1,2,4-Triazol-3-one, 5-ethyl-2,4-dihydro-4-(2-phenoxyethyl)-", "5-Ethyl-2,4-dihydro-4-(2-phenoxyethyl)-3H-1,2,4-triazol-3-one", "4-(2-Phenoxyethyl)-5-ethyl-1,2,4-triazol-3-one", "3-Ethyl-4-(2-phenoxyethyl)-1H-1,2,4-triazol-5-one"], "SMILES": "C(COC1=CC=CC=C1)N2C(CC)=NNC2=O", "physical_data": {"Molecular Weight": "233.27", "Molecular Formula": "C12H15N3O2", "Melting Point": "135-138 \u00b0C"}}