{"cas_no": "959-24-0", "cn_name": "\u76d0\u9178\u7d22\u4ed6\u6d1b\u5c14", "en_name": ["Sotalol hydrochloride", "Methanesulfonamide, N-[4-[1-hydroxy-2-[(1-methylethyl)amino]ethyl]phenyl]-, hydrochloride (1:1)", "Methanesulfonanilide, 4\u2032-[1-hydroxy-2-(isopropylamino)ethyl]-, monohydrochloride", "Methanesulfonamide, N-[4-[1-hydroxy-2-[(1-methylethyl)amino]ethyl]phenyl]-, monohydrochloride", "4\u2032-[1-Hydroxy-2-(isopropylamino)ethyl]methanesulfonanilide hydrochloride", "4\u2032-[2-(Isopropylamino)-1-hydroxyethyl]methanesulfonanilide hydrochloride", "N-Isopropyl-\u03b2-(4-methanesulfonamidophenyl)ethanolamine hydrochloride", "Sotalol hydrochloride", "MJ 1999", "4\u2032-[2-(Isopropylamino)-1-hydroxyethyl]methanesulfonanilide monohydrochloride", "Sotalex", "Sotacor", "DL-MJ 1999", "(\u00b1)-Sotalol hydrochloride", "dl-Sotalol hydrochloride", "Betapace", "Darob", "Sotalol HCl", "N-[4-[1-Hydroxy-2-[(1-methylethyl)amino]ethyl]phenyl]methanesulfonamide hydrochloride"], "SMILES": "C(CNC(C)C)(O)C1=CC=C(NS(C)(=O)=O)C=C1.Cl", "physical_data": {"Molecular Weight": "", "Molecular Formula": "C12H20N2O3S.ClH", "Melting Point": "206.5-207 \u00b0C"}}