{"cas_no": "959-52-4", "cn_name": "1,3,5-\u4e09\u4e19\u70ef\u9170\u57fa\u516d\u6c22-1,3,5-\u4e09\u55ea", "en_name": ["1,1\u2032,1\u2032\u2032-(1,3,5-Triazine-1,3,5(2H,4H,6H)-triyl)tris[2-propen-1-one]", "2-Propen-1-one, 1,1\u2032,1\u2032\u2032-(1,3,5-triazine-1,3,5(2H,4H,6H)-triyl)tris-", "s-Triazine, 1,3,5-triacryloylhexahydro-", "1,3,5-Triazine, hexahydro-1,3,5-tris(1-oxo-2-propenyl)-", "1,1\u2032,1\u2032\u2032-(1,3,5-Triazine-1,3,5(2H,4H,6H)-triyl)tris[2-propen-1-one]", "Triacrylformal", "Hexahydro-1,3,5-triacryloyl-s-triazine", "1,3,5-Triacryloyltrimethylenetriamine", "Fixierer P", "Triacryloylhexahydrotriazine", "Tris(acryloyl)hexahydro-s-triazine", "1,3,5-Triacryloylhexahydro-s-triazine", "Triacryloylperhydrotriazine", "Tri(N-acryloyl)hexahydrotriazine", "1,3,5-Triacryloylhexahydro-1,3,5-triazine", "1,3,5-Triacryloyl-s-triazine", "1,3,5-Triacryloylhexahydrotriazine", "1,3,5-Tris(acryloyl)hexahydro-s-triazine", "Tris(N-acryloyl)hexahydrotriazine", "Triacryloylhexahydro-s-triazine", "Hexahydrotris(acryloyl)-s-triazine", "DU 801", "Fixing Agent P", "TAF", "TAF (crosslinking agent)", "1,3,5-Triacryloylaminohexahydro-s-triazine", "NSC 63839", "NSC 8185", "1-[3,5-Di(prop-2-enoyl)-1,3,5-triazinan-1-yl]prop-2-en-1-one", "1: PN: WO2020148529 PAGE: 32 claimed sequence", "TAT", "1,1\u20321\u2032\u2032-(1,3,5-Triazinane-1,3,5-triyl)triprop-2-en-1-one"], "SMILES": "C(C=C)(=O)N1CN(C(C=C)=O)CN(C(C=C)=O)C1", "physical_data": {"Molecular Weight": "249.27", "Molecular Formula": "C12H15N3O3", "Melting Point": "158 \u00b0C"}}