{"cas_no": "959-36-4", "cn_name": "\u4e2b\u55ea\u6c34\u6768\u919b", "en_name": ["Salicylaldazine", "Benzaldehyde, 2-hydroxy-, 2-[(2-hydroxyphenyl)methylene]hydrazone", "Salicylaldehyde, azine", "Benzaldehyde, 2-hydroxy-, [(2-hydroxyphenyl)methylene]hydrazone", "Salicylaldazine", "Salicylalazine", "Salicylazine", "2,2\u2032-Dihydroxybenzalazine", "Salazine", "o-Hydroxybenzaldazine", "N,N\u2032-Bis(salicylidene)hydrazine", "NSC 695048", "NSC 864", "Bis[2-hydroxybenzaldehyde] hydrazone"], "SMILES": "C(=NN=CC1=C(O)C=CC=C1)C2=C(O)C=CC=C2", "physical_data": {"Molecular Weight": "240.26", "Molecular Formula": "C14H12N2O2", "Melting Point": "213 \u00b0C"}}