{"cas_no": "959-66-0", "cn_name": "2-\u82ef\u7532\u9170\u4e59\u9170\u82ef\u80fa", "en_name": ["\u03b2-Oxo-N-phenylbenzenepropanamide", "Benzenepropanamide, \u03b2-oxo-N-phenyl-", "Acetanilide, 2-benzoyl-", "\u03b2-Oxo-N-phenylbenzenepropanamide", "2-Benzoylacetanilide", "N-Phenylbenzoylacetamide", "NSC 210265", "3-Oxo-N,3-diphenylpropanamide"], "SMILES": "N(C(CC(=O)C1=CC=CC=C1)=O)C2=CC=CC=C2", "physical_data": {"Molecular Weight": "239.27", "Molecular Formula": "C15H13NO2", "Melting Point": "108-110 \u00b0C"}}