{"cas_no": "959-28-4", "cn_name": "\u53cd-1,2-\u4e8c\u82ef\u9170\u4e59\u70ef", "en_name": ["trans-1,2-Dibenzoylethylene", "2-Butene-1,4-dione, 1,4-diphenyl-, (2E)-", "2-Butene-1,4-dione, 1,4-diphenyl-, (E)-", "2-Butene-1,4-dione, 1,4-diphenyl-, trans-", "(2E)-1,4-Diphenyl-2-butene-1,4-dione", "trans-1,4-Diphenyl-2-butene-1,4-dione", "trans-1,2-Dibenzoylethylene", "trans-Dibenzoylethylene", "(E)-1,2-Dibenzoylethylene", "trans-1,2-Dibenzoylethene", "trans-Dibenzoylethene", "trans-1,2-Bis(benzoyl)ethylene", "(E)-1,2-Dibenzoylethene", "(E)-Dibenzoylethylene", "(E)-1,4-Diphenyl-2-butene-1,4-dione", "NSC 1983", "(2E)-1,4-Diphenylbut-2-ene-1,4-dione"], "SMILES": "C(C=CC(=O)C1=CC=CC=C1)(=O)C2=CC=CC=C2", "physical_data": {"Molecular Weight": "236.27", "Molecular Formula": "C16H12O2", "Melting Point": "111 \u00b0C"}}