{"cas_no": "959-98-8", "cn_name": "alpha-\u786b\u4e39", "en_name": ["\u03b1-Endosulfan", "6,9-Methano-2,4,3-benzodioxathiepin, 6,7,8,9,10,10-hexachloro-1,5,5a,6,9,9a-hexahydro-, 3-oxide, (3\u03b1,5a\u03b2,6\u03b1,9\u03b1,9a\u03b2)-", "5-Norbornene-2,3-dimethanol, 1,4,5,6,7,7-hexachloro-, cyclic sulfite, endo-", "Endosulfan A", "Endosulfan I", "\u03b1-Thiodan", "Endosulfan 1", "\u03b2-Thionex", "\u03b1-Endosulfan", "\u03b1-Benzoepin", "Thiodan I", "Endosulphan I", "\u03b1-ES"], "SMILES": "ClC12C3C(C(Cl)(C1(Cl)Cl)C(Cl)=C2Cl)COS(=O)OC3", "physical_data": {"Molecular Weight": "406.93", "Molecular Formula": "C9H6Cl6O3S", "Melting Point": "109.2 \u00b0C"}}