{"cas_no": "959-33-1", "cn_name": "4-\u7532\u6c27\u57fa\u67e5\u8033\u916e", "en_name": ["4-Methoxychalcone", "2-Propen-1-one, 3-(4-methoxyphenyl)-1-phenyl-", "Chalcone, 4-methoxy-", "3-(4-Methoxyphenyl)-1-phenyl-2-propen-1-one", "4\u2032-Methoxybenzylideneacetophenone", "4-Methoxychalcone", "Phenyl p-methoxystyryl ketone", "(4-Methoxybenzylidene)acetophenone", "p-Methoxystyryl phenyl ketone", "3-(p-Methoxyphenyl)-1-phenyl-2-propen-1-one", "4-Methoxystyryl phenyl ketone", "(p-Methoxybenzylidene)acetophenone", "1-Phenyl-3-(4-methoxyphenyl)-2-propen-1-one", "NSC 11866", "NSC 636917", "1-Phenyl-3-(4-methoxyphenyl)-2-propenone"], "SMILES": "C(C=CC1=CC=C(OC)C=C1)(=O)C2=CC=CC=C2", "physical_data": {"Molecular Weight": "238.28", "Molecular Formula": "C16H14O2", "Melting Point": "79 \u00b0C"}}