{"cas_no": "959-14-8", "cn_name": "\u5965\u6c99\u62c9\u660e", "en_name": ["Oxolamine", "1,2,4-Oxadiazole-5-ethanamine, N,N-diethyl-3-phenyl-", "1,2,4-Oxadiazole, 5-[2-(diethylamino)ethyl]-3-phenyl-", "N,N-Diethyl-3-phenyl-1,2,4-oxadiazole-5-ethanamine", "Oxolamine", "5-(2-Diethylaminoethyl)-3-phenyl-1,2,4-oxadiazole", "3-Phenyl-5-(\u03b2-diethylaminoethyl)-1,2,4-oxadiazole", "683M"], "SMILES": "C(CN(CC)CC)C1=NC(=NO1)C2=CC=CC=C2", "physical_data": {"Molecular Weight": "245.32", "Molecular Formula": "C14H19N3O", "Boiling Point": "127 \u00b0C", "Melting Point": "&lt;25 \u00b0C"}}