{"cas_no": "959-23-9", "cn_name": "4'-\u7532\u6c27\u57fa\u67e5\u8033\u916e", "en_name": ["4\u2032-Methoxychalcone", "2-Propen-1-one, 1-(4-methoxyphenyl)-3-phenyl-", "Chalcone, 4\u2032-methoxy-", "1-(4-Methoxyphenyl)-3-phenyl-2-propen-1-one", "4\u2032-Methoxychalcone", "1-(p-Methoxyphenyl)-3-phenyl-2-propen-1-one", "4-Methoxyphenyl styryl ketone", "NSC 37157", "1-(4-Methoxyphenyl)-3-phenylpropenone"], "SMILES": "C(C=CC1=CC=CC=C1)(=O)C2=CC=C(OC)C=C2", "physical_data": {"Molecular Weight": "238.28", "Molecular Formula": "C16H14O2", "Melting Point": "105-107 \u00b0C"}}