{"cas_no": "959-26-2", "cn_name": "\u53cc(2-\u7f9f\u57fa\u4e59\u57fa)\u5bf9\u82ef\u4e8c\u7532\u9178\u916f", "en_name": ["Bis(2-hydroxyethyl) terephthalate", "1,4-Benzenedicarboxylic acid, 1,4-bis(2-hydroxyethyl) ester", "Terephthalic acid, bis(2-hydroxyethyl) ester", "1,4-Benzenedicarboxylic acid, bis(2-hydroxyethyl) ester", "Ethylene glycol, terephthalate (2:1)", "Bis(2-hydroxyethyl) terephthalate", "Bis(\u03b2-hydroxyethyl) terephthalate", "Bis(hydroxyethyl) terephthalate", "Bis(ethylene glycol) terephthalate", "Terephthalic acid diethylene glycol ester", "Nisso BHET", "BHET-N", "BHET(J)", "Terephthalic acid diglycol ester", "Bis(2-hydroxyethyl) 1,4-benzenedicarboxylate", "BHET", "Di-2-hydroxyethyl terephthalate", "B 419409"], "SMILES": "C(OCCO)(=O)C1=CC=C(C(OCCO)=O)C=C1", "physical_data": {"Molecular Weight": "254.24", "Molecular Formula": "C12H14O6", "Melting Point": "110 \u00b0C"}}