{"cas_no": "959122-11-3", "cn_name": "DGAT-1 \u6291\u5236\u5242", "en_name": ["(1R,2R)-2-[[4\u2032-[[(Phenylamino)carbonyl]amino][1,1\u2032-biphenyl]-4-yl]carbonyl]cyclopentanecarboxylic acid", "Cyclopentanecarboxylic acid, 2-[[4\u2032-[[(phenylamino)carbonyl]amino][1,1\u2032-biphenyl]-4-yl]carbonyl]-, (1R,2R)-", "(1R,2R)-2-[[4\u2032-[[(Phenylamino)carbonyl]amino][1,1\u2032-biphenyl]-4-yl]carbonyl]cyclopentanecarboxylic acid", "A 922500"], "SMILES": "C(=O)(C1C(C(O)=O)CCC1)C2=CC=C(C=C2)C3=CC=C(NC(NC4=CC=CC=C4)=O)C=C3", "physical_data": {"Molecular Weight": "428.48", "Molecular Formula": "C26H24N2O4", "Melting Point": "187-189 \u00b0C"}}