{"cas_no": "96-08-2", "cn_name": "1-\u7532\u57fa-4-(2-\u7532\u57fa\u73af\u6c27\u4e59\u70f7\u57fa)-7-\u6c27\u6742\u53cc\u73af[4.1.0]\u5e9a\u70f7", "en_name": ["Limonene dioxide", "7-Oxabicyclo[4.1.0]heptane, 1-methyl-4-(2-methyl-2-oxiranyl)-", "p-Menthane, 1,2:8,9-diepoxy-", "7-Oxabicyclo[4.1.0]heptane, 1-methyl-4-(2-methyloxiranyl)-", "1-Methyl-4-(2-methyl-2-oxiranyl)-7-oxabicyclo[4.1.0]heptane", "1,2,8,9-Diepoxylimonene", "Dipentene dioxide", "Epoxide 269", "Limonene dioxide", "Unoxat Epoxide 269", "Unox 269", "\u03b1-Limonene diepoxide", "1,2:8,9-Diepoxy-p-menthane", "Dipentene diepoxide", "1,2-Epoxy-1-methyl-4-(1-methylepoxyethyl)cyclohexane", "Unox Epoxide 269", "Dipentene oxide", "Limonene diepoxide", "Diepoxylimonene", "NSC 30545", "NSC 54753", "1-Methyl-4-(2-methyloxiranyl)-7-oxabicyclo[4.1.0]heptane", "C 3000", "Limonene 1,2:8,9-diepoxide", "Seroxide 3000", "1,2-Epoxy-4-(2-methyloxiranyl)-1-methylcyclohexane", "C 3000 monomer", "Epoxy 269"], "SMILES": "CC12C(O1)CC(CC2)C3(C)CO3", "physical_data": {"Molecular Weight": "168.23", "Molecular Formula": "C10H16O2", "Boiling Point": "242 \u00b0C", "Density": "1.0287 g/cm\u00b3 @ Temp: 20 \u00b0C"}}