{"cas_no": "96-05-9", "cn_name": "\u7532\u57fa\u4e19\u70ef\u9178\u70ef\u4e19\u916f", "en_name": ["Allyl methacrylate", "2-Propenoic acid, 2-methyl-, 2-propen-1-yl ester", "Methacrylic acid, allyl ester", "2-Propenoic acid, 2-methyl-, 2-propenyl ester", "Allyl alcohol, methacrylate", "Allyl methacrylate", "NSC 18597", "2-Methyl-2-propenoic acid 2-propenyl ester", "Acryester A", "3-Methacryloyloxypropylene", "Visiomer AMA", "AMA"], "SMILES": "C(C(C)=C)(OCC=C)=O", "physical_data": {"Molecular Weight": "126.15", "Molecular Formula": "C7H10O2", "Boiling Point": "30-50 \u00b0C @ Press: 23 Torr", "Density": "0.927 g/cm\u00b3 @ Temp: 20 \u00b0C"}}