{"cas_no": "96-09-3", "cn_name": "\u6c27\u5316\u82ef\u4e59\u70ef", "en_name": ["Styrene oxide", "Oxirane, 2-phenyl-", "Benzene, (epoxyethyl)-", "Oxirane, phenyl-", "Ethane, 1,2-epoxy-1-phenyl-", "2-Phenyloxirane", "Epoxystyrene", "1,2-Epoxyethylbenzene", "Phenethylene oxide", "Phenylethylene oxide", "Styrene epoxide", "Styrene oxide", "Phenyloxirane", "Styryl oxide", "\u03b1,\u03b2-Epoxystyrene", "1-Phenyl-1,2-epoxyethane", "(Epoxyethyl)benzene", "Styrene 7,8-oxide", "Styrene 1\u2032,2\u2032-oxide", "(\u00b1)-Styrene oxide", "(\u00b1)-Phenylethylene oxide", "(\u00b1)-Phenyloxirane", "NSC 637", "NSC 7582", "STO"], "SMILES": "C1(CO1)C2=CC=CC=C2", "physical_data": {"Molecular Weight": "120.15", "Molecular Formula": "C8H8O", "Boiling Point": "194.1 \u00b0C", "Melting Point": "-35.6 \u00b0C", "Density": "1.0523 g/cm\u00b3 @ Temp: 16 \u00b0C"}}