{"cas_no": "96-04-8", "cn_name": "2,3-\u5e9a\u70f7\u4e8c\u916e", "en_name": ["2,3-Heptanedione", "2,3-Heptanedione", "Acetylvaleryl", "Valerylacetyl", "NSC 31668", "Heptan-2,3-dione"], "SMILES": "C(C(C)=O)(CCCC)=O", "physical_data": {"Molecular Weight": "128.17", "Molecular Formula": "C7H12O2", "Boiling Point": "46 \u00b0C @ Press: 13 Torr", "Density": "0.9241 g/cm\u00b3 @ Temp: 20 \u00b0C"}}