{"cas_no": "96-15-1", "cn_name": "2-\u7532\u57fa\u6b63\u4e01\u80fa", "en_name": ["(\u00b1)-2-Methylbutylamine", "1-Butanamine, 2-methyl-", "Butylamine, 2-methyl-", "2-Methyl-1-butanamine", "2-Methylbutylamine", "1-Amino-2-methylbutane", "2-Methyl-1-butylamine", "\u03b2-Methylbutylamine", "2-Methylbutanamine", "dl-2-Methylbutylamine", "(\u00b1)-2-Methylbutylamine", "2-Ethylpropylamine"], "SMILES": "C(CC)(CN)C", "physical_data": {"Molecular Weight": "87.16", "Molecular Formula": "C5H13N", "Boiling Point": "40-45 \u00b0C @ Press: 12 Torr"}}