{"cas_no": "96-12-8", "cn_name": "1,2-\u4e8c\u6eb4-3-\u6c2f\u4e19\u70f7", "en_name": ["1,2-Dibromo-3-chloropropane", "Propane, 1,2-dibromo-3-chloro-", "1,2-Dibromo-3-chloropropane", "OS 1897", "Nemafume", "Fumazone", "Nemagon", "Nemagon Soil Fumigant", "Nemapaz", "Nemazon", "DBCP", "Nemagon 90", "Nemagon 20", "Nemagon 20G", "Dibromochloropropane", "3-Chloro-1,2-dibromopropane", "1-Chloro-2,3-dibromopropane", "NSC 1512"], "SMILES": "C(CBr)(CCl)Br", "physical_data": {"Molecular Weight": "236.33", "Molecular Formula": "C3H5Br2Cl", "Boiling Point": "164.5 \u00b0C @ Press: 300 Torr", "Melting Point": "5 \u00b0C", "Density": "2.08 g/cm\u00b3 @ Temp: 20 \u00b0C"}}