{"cas_no": "96-10-6", "cn_name": "\u6c2f\u5316\u4e8c\u4e59\u57fa\u94dd", "en_name": ["Diethylaluminum chloride", "Aluminum, chlorodiethyl-", "Diethylaluminum chloride", "Aluminum, dichlorotetraethyldi-", "Chlorodiethylaluminum", "Diethylaluminum monochloride", "Diethylchloroaluminum", "Diethylaluminium chloride"], "SMILES": "[Al](CC)(CC)Cl", "physical_data": {"Molecular Weight": "", "Molecular Formula": "C4H10AlCl", "Boiling Point": "208 \u00b0C", "Melting Point": "-74 \u00b0C", "Density": "0.9709 g/cm\u00b3 @ Temp: 25 \u00b0C"}}