{"cas_no": "96-18-4", "cn_name": "1,2,3-\u4e09\u6c2f\u4e19\u70f7", "en_name": ["1,2,3-Trichloropropane", "Propane, 1,2,3-trichloro-", "1,2,3-Trichloropropane", "Allyl trichloride", "Glycerol trichlorohydrin", "Glyceryl trichlorohydrin", "Trichlorohydrin", "NSC 35403", "HCC 260DA"], "SMILES": "C(CCl)(CCl)Cl", "physical_data": {"Molecular Weight": "147.43", "Molecular Formula": "C3H5Cl3", "Boiling Point": "156.85 \u00b0C", "Melting Point": "-14.7 \u00b0C", "Density": "1.3889 g/cm\u00b3 @ Temp: 20 \u00b0C"}}