{"cas_no": "96-11-7", "cn_name": "1,2,3-\u4e09\u6eb4\u4e19\u70f7", "en_name": ["1,2,3-Tribromopropane", "Propane, 1,2,3-tribromo-", "1,2,3-Tribromopropane", "Glycerol tribromohydrin", "sym-Tribromopropane", "NSC 78932"], "SMILES": "C(CBr)(CBr)Br", "physical_data": {"Molecular Weight": "280.78", "Molecular Formula": "C3H5Br3", "Boiling Point": "222.1 \u00b0C", "Melting Point": "16.9 \u00b0C", "Density": "1.4215 g/cm\u00b3 @ Temp: 20 \u00b0C"}}