{"cas_no": "96-19-5", "cn_name": "1,2,3-\u4e09\u6c2f\u4e19\u70ef", "en_name": ["1,2,3-Trichloro-1-propene", "1-Propene, 1,2,3-trichloro-", "Propene, 1,2,3-trichloro-", "1,2,3-Trichloro-1-propene", "1,2,3-Trichloropropene", "2,3-Dichloroallyl chloride", "NSC 164001"], "SMILES": "C(CCl)(=CCl)Cl", "physical_data": {"Molecular Weight": "145.41", "Molecular Formula": "C3H3Cl3", "Boiling Point": "142 \u00b0C", "Density": "1.412 g/cm\u00b3 @ Temp: 20 \u00b0C"}}