{"cas_no": "96-13-9", "cn_name": "2,3-\u4e8c\u6eb4-1-\u4e19\u9187", "en_name": ["2,3-Dibromo-1-propanol", "1-Propanol, 2,3-dibromo-", "2,3-Dibromo-1-propanol", "2,3-Dibromopropyl alcohol", "1,2-Dibromopropan-3-ol", "Brominex 257", "DBP (flame retardant)", "DBP", "NSC 6203"], "SMILES": "C(CBr)(CO)Br", "physical_data": {"Molecular Weight": "217.89", "Molecular Formula": "C3H6Br2O", "Boiling Point": "219 \u00b0C", "Density": "2.120 g/cm\u00b3 @ Temp: 20 \u00b0C"}}