{"cas_no": "96-14-0", "cn_name": "3-\u7532\u57fa\u620a\u70f7", "en_name": ["3-Methylpentane", "Pentane, 3-methyl-", "3-Methylpentane", "NSC 66497"], "SMILES": "C(CC)(CC)C", "physical_data": {"Molecular Weight": "86.18", "Molecular Formula": "C6H14", "Boiling Point": "63.282 \u00b0C", "Melting Point": "-118 \u00b0C", "Density": "0.65976 g/cm\u00b3 @ Temp: 25 \u00b0C"}}