{"cas_no": "96-20-8", "cn_name": "2-\u6c28\u57fa-1-\u4e01\u9187", "en_name": ["2-Amino-1-butanol", "1-Butanol, 2-amino-", "2-Amino-1-butanol", "1-(Hydroxymethyl)propylamine", "1-Hydroxy-2-butylamine", "2-Amino-1-hydroxybutane", "2-Aminobutyl alcohol", "1-Hydroxy-sec-butylamine", "1-Hydroxy-2-aminobutane", "DL-\u03b1-Aminobutanol", "DL-2-Aminobutanol", "dl-2-Amino-1-butanol", "(\u00b1)-2-Amino-1-butanol", "DL-2-Amino-1-butanol", "(RS)-2-Amino-1-butanol", "NSC 1068", "1-Hydroxybutan-2-amine"], "SMILES": "C(CC)(CO)N", "physical_data": {"Molecular Weight": "89.14", "Molecular Formula": "C4H11NO", "Boiling Point": "178 \u00b0C", "Melting Point": "-2 \u00b0C", "Density": "0.9443 g/cm\u00b3 @ Temp: 26 \u00b0C"}}