{"cas_no": "96-26-4", "cn_name": "1,3-\u4e8c\u7f9f\u57fa\u4e19\u916e", "en_name": ["Dihydroxyacetone", "2-Propanone, 1,3-dihydroxy-", "1,3-Dihydroxy-2-propanone", "Chromelin", "1,3-Dihydroxyacetone", "Dihydroxyacetone", "Triulose", "Dihyxal", "Otan", "Oxantin", "Oxatone", "Soleal", "Viticolor", "\u03b1,\u03b1\u2032-Dihydroxyacetone", "Bis(hydroxymethyl) ketone", "NSC 24343", "2-Oxopropane-1,3-diol", "MeSH ID: D004098"], "SMILES": "C(CO)(CO)=O", "physical_data": {"Molecular Weight": "90.08", "Molecular Formula": "C3H6O3", "Melting Point": "90 \u00b0C"}}