{"cas_no": "96-21-9", "cn_name": "1,3-\u4e8c\u6eb4-2-\u4e19\u9187", "en_name": ["1,3-Dibromo-2-propanol", "2-Propanol, 1,3-dibromo-", "1,3-Dibromo-2-propanol", "\u03b1,\u03b3-Dibromohydrin", "1,3-Dibromo-2-hydroxypropane", "\u03b1-Dibromohydrin", "Glycerol 1,3-dibromohydrin", "Glycerol \u03b1,\u03b3-dibromohydrin", "1,3-Dibromohydrin", "2-Hydroxy-1,3-dibromopropane", "1,3-Dibromopropanol", "NSC 636"], "SMILES": "C(CBr)(CBr)O", "physical_data": {"Molecular Weight": "217.89", "Molecular Formula": "C3H6Br2O", "Boiling Point": "103-106 \u00b0C @ Press: 15 Torr", "Melting Point": "103-106 \u00b0C"}}