{"cas_no": "96-27-5", "cn_name": "1-\u786b\u4ee3\u7518\u6cb9", "en_name": ["Thioglycerol", "1,2-Propanediol, 3-mercapto-", "3-Mercapto-1,2-propanediol", "1-Mercaptoglycerol", "1-Mercapto-2,3-propanediol", "\u03b1-Monothioglycerol", "\u03b1-Thioglycerol", "1-Thioglycerol", "Thiovanol", "1-Monothioglycerol", "1-Thio-2,3-propanediol", "Thioglycerol", "\u03b1-Thiolglycerol", "2,3-Dihydroxypropanethiol", "Glycerol-1-thiol", "2,3-Dihydroxy-1-propanethiol", "3-Mercapto-1,2-dihydroxypropane", "\u03b1-Thioglycerin", "1-Mercapto-2,3-dihydroxypropane", "1,2-Dihydroxy-3-mercaptopropane", "1-Thio-DL-glycerol", "DL-1-Thioglycerol", "(\u00b1)-3-Mercapto-1,2-propanediol", "Thioglycerin", "NSC 5370", "3-Sulfanylpropane-1,2-diol", "Blemmer TGL", "T 141418"], "SMILES": "C(CO)(CS)O", "physical_data": {"Molecular Weight": "108.16", "Molecular Formula": "C3H8O2S", "Boiling Point": "118 \u00b0C @ Press: 5 Torr", "Melting Point": "&lt;25 \u00b0C", "Density": "1.295 g/cm\u00b3"}}