{"cas_no": "96-29-7", "cn_name": "\u7532\u4e59\u916e\u809f", "en_name": ["Methyl ethyl ketoxime", "2-Butanone, oxime", "Methyl ethyl ketoxime", "MEK-oxime", "Ethyl methyl ketoxime", "Methyl ethyl ketone oxime", "Ethyl methyl ketone oxime", "2-Butoxime", "Aron M 1", "Exkin II", "Exkin 2", "Mekor 70", "NSC 442", "NSC 65465", "Troykyd AntiSkin B", "Hiaron M 1", "Borchinox M 2", "KL 841", "Butoxime", "MSDS", "Skino 2"], "SMILES": "C(CC)(=NO)C", "physical_data": {"Molecular Weight": "87.12", "Molecular Formula": "C4H9NO", "Boiling Point": "152.5 \u00b0C", "Melting Point": "-29.5 \u00b0C", "Density": "0.9232 g/cm\u00b3 @ Temp: 80 \u00b0C"}}