{"cas_no": "96-23-1", "cn_name": "1,3-\u4e8c\u6c2f\u4e19\u9187", "en_name": ["1,3-Dichloro-2-propanol", "2-Propanol, 1,3-dichloro-", "1,3-Dichloro-2-propanol", "sym-Dichloroisopropyl alcohol", "Glycerol \u03b1,\u03b3-dichlorohydrin", "sym-Glycerol dichlorohydrin", "\u03b1,\u03b3-Dichlorohydrin", "1,3-Dichloro-2-hydroxypropane", "Glycerol 1,3-dichlorohydrin", "\u03b1-Dichlorohydrin", "1,3-Dichloroisopropanol", "Propylene dichlorohydrin", "1,3-Dichloroisopropyl alcohol", "1,3-Dichlorohydrin", "2-Chloro-1-(chloromethyl)ethanol", "Bis(chloromethyl)methanol", "NSC 70982"], "SMILES": "C(CCl)(CCl)O", "physical_data": {"Molecular Weight": "128.99", "Molecular Formula": "C3H6Cl2O", "Boiling Point": "174.3 \u00b0C @ Press: 760 Torr", "Melting Point": "-4 \u00b0C", "Density": "1.3506 g/cm\u00b3 @ Temp: 17 \u00b0C"}}