{"cas_no": "96-24-2", "cn_name": "3-\u6c2f-1,2-\u4e19\u4e8c\u9187", "en_name": ["3-Chloro-1,2-propanediol", "1,2-Propanediol, 3-chloro-", "3-Chloro-1,2-propanediol", "1-Chloro-2,3-dihydroxypropane", "3-Chloro-1,2-dihydroxypropane", "3-Chloropropylene glycol", "Glycerin \u03b1-monochlorhydrin", "Glycerol \u03b1-chlorohydrin", "Glycerol \u03b1-monochlorohydrin", "\u03b1-Chlorohydrin", "1-Chloro-2,3-propanediol", "Chloropropanediol", "Glycerol 3-chlorohydrin", "3-Chloropropanediol", "Chlorohydrin", "Glyceryl \u03b1-chlorohydrin", "Glyceryl chloride", "Glycerin epichlorohydrin", "Glycerol monochlorohydrin", "1,2-Dihydroxy-3-chloropropane", "U 5897", "\u03b1-Monochlorohydrin", "3-Chloro-1,2-propylene glycol", "1-Chloro-1-deoxyglycerol", "Epibloc", "Glycerin monochlorohydrin", "dl-\u03b1-Chlorohydrin", "(\u00b1)-2,3-Dihydroxychloropropane", "(RS)-\u03b1-Chlorohydrin", "(\u00b1)-3-Chloro-1,2-propanediol", "(RS)-3-Chloro-1,2-propanediol", "Ekorod A", "3-Monochloro-1,2-propanediol"], "SMILES": "C(CCl)(CO)O", "physical_data": {"Molecular Weight": "110.54", "Molecular Formula": "C3H7ClO2", "Boiling Point": "142 \u00b0C @ Press: 20 Torr", "Melting Point": "34.4 \u00b0C", "Density": "1.3218 g/cm\u00b3 @ Temp: 20 \u00b0C"}}