{"cas_no": "96-22-0", "cn_name": "3-\u620a\u916e", "en_name": ["Ethyl ketone", "3-Pentanone", "DEK", "Diethyl ketone", "Dimethylacetone", "Ethyl ketone", "Metacetone", "Methacetone", "Propione", "ZED 2EK", "NSC 8653"], "SMILES": "C(CC)(CC)=O", "physical_data": {"Molecular Weight": "86.13", "Molecular Formula": "C5H10O", "Boiling Point": "101.9 \u00b0C", "Melting Point": "-39 \u00b0C", "Density": "0.816 g/cm\u00b3 @ Temp: 19 \u00b0C"}}