{"cas_no": "96-31-1", "cn_name": "1,3-\u4e8c\u7532\u57fa\u8132", "en_name": ["N,N\u2032-Dimethylurea", "Urea, N,N\u2032-dimethyl-", "Urea, 1,3-dimethyl-", "N,N\u2032-Dimethylurea", "1,3-Dimethylurea", "Symmetric dimethylurea", "sym-Dimethylurea", "NSC 14910", "NSC 24823"], "SMILES": "C(NC)(NC)=O", "physical_data": {"Molecular Weight": "88.11", "Molecular Formula": "C3H8N2O", "Boiling Point": "268-270 \u00b0C", "Melting Point": "108 \u00b0C", "Density": "1.142 g/cm\u00b3"}}