{"cas_no": "96-34-4", "cn_name": "\u6c2f\u4e59\u9178\u7532\u916f", "en_name": ["Methyl chloroacetate", "Acetic acid, 2-chloro-, methyl ester", "Acetic acid, chloro-, methyl ester", "Methyl chloroacetate", "Methyl monochloroacetate", "Monochloroacetic acid methyl ester", "Methyl monochloracetate", "Methyl \u03b1-chloroacetate", "Methyl 2-chloroacetate", "Chloroacetic acid methyl ester", "NSC 2635", "2-Chloroacetic acid methyl ester"], "SMILES": "C(CCl)(OC)=O", "physical_data": {"Molecular Weight": "108.52", "Molecular Formula": "C3H5ClO2", "Boiling Point": "129.5 \u00b0C", "Melting Point": "-32.1 \u00b0C", "Density": "1.238 g/cm\u00b3 @ Temp: 20 \u00b0C"}}