{"cas_no": "96-32-2", "cn_name": "\u6eb4\u4e59\u9178\u7532\u916f", "en_name": ["Bromoacetic acid methyl ester", "Acetic acid, 2-bromo-, methyl ester", "Acetic acid, bromo-, methyl ester", "Methyl bromoacetate", "Bromoacetic acid methyl ester", "Methyl \u03b1-bromoacetate", "Methyl monobromoacetate", "Methyl 2-bromoacetate", "Carbomethoxymethyl bromide", "2-Bromoacetic acid methyl ester", "NSC 2642", "Methyl 2-bromoethanoate"], "SMILES": "C(CBr)(OC)=O", "physical_data": {"Molecular Weight": "152.97", "Molecular Formula": "C3H5BrO2", "Boiling Point": "132 \u00b0C"}}