{"cas_no": "96-30-0", "cn_name": "2-\u6c2f-N-\u7532\u57fa\u4e59\u9170\u80fa", "en_name": ["2-Chloro-N-methylacetamide", "Acetamide, 2-chloro-N-methyl-", "2-Chloro-N-methylacetamide", "\u03b1-Chloro-N-methylacetamide", "N-Methylchloroacetamide", "N-Methyl-2-chloroacetamide", "NSC 1725"], "SMILES": "C(CCl)(NC)=O", "physical_data": {"Molecular Weight": "107.54", "Molecular Formula": "C3H6ClNO", "Boiling Point": "112-130 \u00b0C @ Press: 22 Torr", "Melting Point": "45-46 \u00b0C"}}