{"cas_no": "96-37-7", "cn_name": "\u7532\u57fa\u73af\u620a\u70f7", "en_name": ["Methylcyclopentane", "Cyclopentane, methyl-", "Methylcyclopentane", "NSC 24836", "Methycyclopentane"], "SMILES": "CC1CCCC1", "physical_data": {"Molecular Weight": "84.16", "Molecular Formula": "C6H12", "Boiling Point": "71.8 \u00b0C @ Press: 760 Torr", "Melting Point": "-142.5 \u00b0C", "Density": "0.7486 g/cm\u00b3 @ Temp: 20 \u00b0C"}}