{"cas_no": "96-33-3", "cn_name": "\u4e19\u70ef\u9178\u7532\u916f", "en_name": ["Methyl acrylate", "2-Propenoic acid, methyl ester", "Acrylic acid methyl ester", "Methyl acrylate", "2-Propenoic acid methyl ester", "Methoxycarbonylethylene", "Methyl propenoate", "Methyl prop-2-enoate", "Methyl acrylic ester", "NSC 24146", "K 400", "Methacrylic acid tert-butyl ester", "K 268P", "Methyl acrylate-vinylidene copolymer"], "SMILES": "C(C=C)(OC)=O", "physical_data": {"Molecular Weight": "86.09", "Molecular Formula": "C4H6O2", "Boiling Point": "80.5 \u00b0C", "Melting Point": "-76.5 \u00b0C", "Density": "0.9535 g/cm\u00b3 @ Temp: 20 \u00b0C"}}