{"cas_no": "96-35-5", "cn_name": "\u7f9f\u4e59\u9178\u7532\u916f", "en_name": ["Methyl glycolate", "Acetic acid, 2-hydroxy-, methyl ester", "Glycolic acid, methyl ester", "Acetic acid, hydroxy-, methyl ester", "Methyl glycolate", "Methyl hydroxyacetate", "Methyl 2-hydroxyacetate", "Methyl 2-hydroxyethanoate", "Hydroxyacetic acid methyl ester", "NSC 27786"], "SMILES": "C(CO)(OC)=O", "physical_data": {"Molecular Weight": "90.08", "Molecular Formula": "C3H6O3", "Boiling Point": "63 \u00b0C @ Press: 21 Torr", "Melting Point": "148 \u00b0C", "Density": "1.4251 g/cm\u00b3 @ Temp: 20 \u00b0C"}}