{"cas_no": "96-49-1", "cn_name": "\u78b3\u9178\u4e59\u70ef\u916f", "en_name": ["Ethylene carbonate", "1,3-Dioxolan-2-one", "Carbonic acid, cyclic ethylene ester", "Cyclic ethylene carbonate", "Ethylene carbonate", "Ethylene glycol carbonate", "Glycol carbonate", "Texacar EC", "Jeffsol EC", "NSC 11801", "NSC 16568", "2-Oxo-1,3-dioxolane", "2-Dioxolanone", "JS 1002", "PC Dilanon"], "SMILES": "O=C1OCCO1", "physical_data": {"Molecular Weight": "88.06", "Molecular Formula": "C3H4O3", "Boiling Point": "248 \u00b0C", "Melting Point": "36.4 \u00b0C", "Density": "1.3214 g/cm\u00b3 @ Temp: 39 \u00b0C"}}