{"cas_no": "96-41-3", "cn_name": "\u73af\u620a\u9187", "en_name": ["Cyclopentanol", "Cyclopentanol", "Cyclopentyl alcohol", "Hydroxycyclopentane", "NSC 49117", "1-Cyclopentanol"], "SMILES": "OC1CCCC1", "physical_data": {"Molecular Weight": "86.13", "Molecular Formula": "C5H10O", "Boiling Point": "140.4 \u00b0C @ Press: 760 Torr", "Melting Point": "-19 \u00b0C", "Density": "0.9478 g/cm\u00b3 @ Temp: 20 \u00b0C"}}