{"cas_no": "96-48-0", "cn_name": "\u03b3-\u4e01\u5185\u916f", "en_name": ["\u03b3-Butyrolactone", "2(3H)-Furanone, dihydro-", "Dihydro-2(3H)-furanone", "NIH 10540", "\u03b3-BL", "Butyrolactone", "1,4-Butanolide", "\u03b3-Butyrolactone", "4-Hydroxybutanoic acid lactone", "\u03b3-Hydroxybutyric acid lactone", "Butanoic acid, 4-hydroxy-, \u03b3-lactone", "Butyric acid lactone", "4-Hydroxybutyric acid lactone", "Tetrahydro-2-furanone", "4-Butanolide", "4-Deoxytetronic acid", "1-Oxacyclopentan-2-one", "2-Oxotetrahydrofuran", "\u03b3-Butyryllactone", "4,5-Dihydro-2(3H)-furanone", "\u03b3-Butalactone", "2-Oxolanone", "2,3,4,5-Tetrahydro-2-furanone", "Paint Clean G", "NSC 4592", "GBL", "LBG 11785", "B 0767"], "SMILES": "O=C1CCCO1", "physical_data": {"Molecular Weight": "86.09", "Molecular Formula": "C4H6O2", "Boiling Point": "204 \u00b0C @ Press: 760 Torr", "Melting Point": "-43.53 \u00b0C", "Density": "1.1284 g/cm\u00b3 @ Temp: 16 \u00b0C"}}