{"cas_no": "96-47-9", "cn_name": "2-\u7532\u57fa\u56db\u6c22\u544b\u5583", "en_name": ["2-Methyltetrahydrofuran", "Furan, tetrahydro-2-methyl-", "Tetrahydro-2-methylfuran", "2-Methyltetrahydrofuran", "Tetrahydrosylvan", "MTHF", "(\u00b1)-2-Methyltetrahydrofuran", "NSC 2115"], "SMILES": "CC1CCCO1", "physical_data": {"Molecular Weight": "86.13", "Molecular Formula": "C5H10O", "Boiling Point": "78 \u00b0C", "Melting Point": "-136 \u00b0C", "Density": "0.9564 g/cm\u00b3 @ Temp: 18 \u00b0C"}}