{"cas_no": "96-43-5", "cn_name": "2-\u6c2f\u567b\u5429", "en_name": ["2-Chlorothiophene", "Thiophene, 2-chloro-", "2-Chlorothiophene", "2-Thienyl chloride", "NSC 8747", "2-Thiophene chloride"], "SMILES": "ClC1=CC=CS1", "physical_data": {"Molecular Weight": "118.58", "Molecular Formula": "C4H3ClS", "Boiling Point": "128.3 \u00b0C", "Melting Point": "-71.9 \u00b0C"}}