{"cas_no": "96-45-7", "cn_name": "\u4e9a\u4e59\u57fa\u786b\u8132", "en_name": ["Ethylenethiourea", "2-Imidazolidinethione", "Imidazoline-2-thiol", "Ethylenethiourea", "N,N\u2032-Ethylenethiourea", "Warecure C", "Thiourea, N,N\u2032-1,2-ethanediyl-", "NA 22", "Tetrahydro-2H-imidazole-2-thione", "Imidazoline-2(3H)-thione", "2-Mercaptoimidazoline", "Imidazolidinethione", "Mercaptoimidazoline", "2-Mercapto-2-imidazoline", "2-Imidazoline-2-thiol", "4,5-Dihydro-2-mercaptoimidazole", "Rhodanin S 62", "1,3-Ethylenethiourea", "Pennac CRA", "ETU", "Mercazin I", "Rhenogran ETU", "Vulkacit NPV/C", "Soxinol 22", "Nocceler 22", "2-Thioimidazolidine", "Accel 22", "Accel 22S", "Sanceler 22", "Sanceler 22C", "2-Mercapto-4,5-dihydroimidazole", "Ethylenethiocarbamide", "ETC", "END 75", "Sanceler 22S", "ETU 22S", "ETU 80", "Rhenogran ETU 80", "TU 2", "Sanmix 22-80E", "Rhenogran ETU 75", "ETU 75", "Accelerator ETU", "Accelerator NA 22", "Rhenocure NPV/C", "MeSH ID: D005031"], "SMILES": "S=C1NCCN1", "physical_data": {"Molecular Weight": "102.16", "Molecular Formula": "C3H6N2S", "Boiling Point": "347.18 \u00b0C", "Melting Point": "199-204 \u00b0C"}}