{"cas_no": "96-50-4", "cn_name": "2-\u6c28\u57fa\u567b\u5511", "en_name": ["2-Aminothiazole", "2-Thiazolamine", "Thiazole, 2-amino-", "4-Thiazoline, 2-imino-", "Abadol", "Abadole", "Aminothiazole", "2-Aminothiazole", "Basedol", "2-Thiazolylamine", "2-Amino-1,3-thiazole", "NSC 1900", "1,3-Thiazol-2-amine", "2-Aminothiazol"], "SMILES": "NC1=NC=CS1", "physical_data": {"Molecular Weight": "100.14", "Molecular Formula": "C3H4N2S", "Boiling Point": "140 \u00b0C @ Press: 12 Torr", "Melting Point": "93 \u00b0C"}}