{"cas_no": "96-53-7", "cn_name": "\u567b\u5511\u70f7-2-\u786b\u916e", "en_name": ["2-Thiazolidinethione", "2-Thiazolidinethione", "2-Thiazoline-2-thiol", "2-Mercaptothiazoline", "2-Mercapto-2-thiazoline", "2-Thiothiazolidone", "Metabasal", "Thyroidan", "2-Mercapto-\u03942-thiazoline", "4,5-Dihydro-2-mercaptothiazole", "Tetrahydrothiazole-2-thione", "\u03942-Thiazoline-2-thiol", "2-Mercapto-4,5-dihydrothiazole", "Sancelent 2MT", "WR 305", "1,3-Thiazolidine-2-thione", "4,5-Dihydrothiazole-2-thiol", "1,3-Thiazolidin-2-thione", "NSC 680", "5-Isothiazolidinethione"], "SMILES": "S=C1NCCS1", "physical_data": {"Molecular Weight": "119.21", "Molecular Formula": "C3H5NS2", "Boiling Point": "176-178 \u00b0C @ Press: 0.25 Torr", "Melting Point": "120-125 \u00b0C"}}