{"cas_no": "96-54-8", "cn_name": "N-\u7532\u57fa\u5421\u54af", "en_name": ["1-Methylpyrrole", "1H-Pyrrole, 1-methyl-", "Pyrrole, 1-methyl-", "1-Methyl-1H-pyrrole", "N-Methylpyrrole", "1-Methylpyrrole", "NSC 65440"], "SMILES": "CN1C=CC=C1", "physical_data": {"Molecular Weight": "81.12", "Molecular Formula": "C5H7N", "Boiling Point": "115 \u00b0C", "Density": "0.9096 g/cm\u00b3 @ Temp: 20 \u00b0C"}}