{"cas_no": "96-69-5", "cn_name": "4,4'-\u786b\u4ee3\u53cc(6-\u7279\u4e01\u57fa\u95f4\u7532\u915a)", "en_name": ["4,4\u2032-Thiobis(3-methyl-6-tert-butylphenol)", "Phenol, 4,4\u2032-thiobis[2-(1,1-dimethylethyl)-5-methyl-", "m-Cresol, 4,4\u2032-thiobis[6-tert-butyl-", "4,4\u2032-Thiobis[2-(1,1-dimethylethyl)-5-methylphenol]", "Bis(3-tert-butyl-4-hydroxy-6-methylphenyl) sulfide", "Bis(4-hydroxy-5-tert-butyl-2-methylphenyl) sulfide", "Disperse MB 61", "Santonox", "Santowhite Crystals", "4,4\u2032-Thiobis[6-tert-butyl-3-methylphenol]", "1,1\u2032-Thiobis(2-methyl-4-hydroxy-5-tert-butyl)benzene", "Bis(2-methyl-4-hydroxy-5-tert-butylphenyl) sulfide", "4,4\u2032-Thiobis[2-tert-butyl-5-methylphenol]", "Bis(2-methyl-5-tert-butyl-4-hydroxyphenyl) sulfide", "Thioalkofen BMCh", "2,2\u2032-Di-tert-butyl-5,5\u2032-dimethyl-4,4\u2032-thiodiphenol", "Thioalkofen BM", "Thioalkofen MBCh", "Bis(5-tert-butyl-4-hydroxy-2-methylphenyl) sulfide", "Thioalkofen BM 4", "Sumilizer WX", "4,4\u2032-Bis(6-tert-butyl-m-cresol) sulfide", "Santonox BM", "Yoshinox SR", "4,4\u2032-Thiobis[6-tert-butyl-m-cresol]", "Sumilizer WX-R", "Santonox R", "Yoshinox S", "Nocrac 300", "Nonflex BPS", "AO 4", "Antioxidant TMB 6", "Sumilizer WX-RC", "Antage Crystal", "Nonflex BPS-R", "ZBX 1R", "4,4\u2032-Thiobis[3-methyl-6-tert-butylphenol]", "N 300", "Seenox BCS", "Lowinox TBM 6", "Irganox 415", "Antigene WX-R", "Lowinox 44S36", "Keminox 236T", "Santonox TBMC", "Ultranox 236", "NSC 35388", "Antioxidant 300", "Durad AX 16", "4,4\u2032-Thiobis(6-t-butyl-m-cresol)", "Lowinox TBM 6P", "AO 1081", "Irganox 300", "4,4\u2032-Thiobis(3-methyl-6-tert-butylphenol)", "TBM 6", "Antioxidant B 102", "Antioxidant BPS", "4,4\u2032-Thiobis(6-tert-butyl-m-cresol)", "AO 300", "Chinox 300", "K 300", "Lowinox Rosin 6", "AO-TBM 6", "2-tert-Butyl-4-(5-tert-butyl-4-hydroxy-2-methylphenyl)sulfanyl-5-methylphenol", "PKG 906"], "SMILES": "C(C)(C)(C)C1=CC(SC2=CC(C(C)(C)C)=C(O)C=C2C)=C(C)C=C1O", "physical_data": {"Molecular Weight": "358.54", "Molecular Formula": "C22H30O2S", "Melting Point": "150 \u00b0C"}}