{"cas_no": "96-66-2", "cn_name": "4,4'-\u786b\u8054\u4e8c(6-\u53d4\u4e01\u57fa-2-\u7532\u57fa\u82ef\u915a)", "en_name": ["Antioxidant 736", "Phenol, 4,4\u2032-thiobis[2-(1,1-dimethylethyl)-6-methyl-", "o-Cresol, 4,4\u2032-thiobis[6-tert-butyl-", "4,4\u2032-Thiobis[2-(1,1-dimethylethyl)-6-methylphenol]", "4,4\u2032-Thiobis(6-tert-butyl-o-cresol)", "4,4\u2032-Thiobis(2-methyl-6-tert-butylphenol)", "4,4\u2032-Thiobis(6-tert-butyl-2-methylphenol)", "Ethyl 736", "2,2\u2032-Di-tert-Butyl-6,6\u2032-dimethyl-4,4\u2032-thiodiphenol", "Antioxidant E 736", "E 736", "TB 2", "Ethyl Antioxidant 736", "Antioxidant 736", "4,4\u2032-Thiobis(2-tert-butyl-6-methylphenol)", "Ethyl AO 736", "AO 736", "TB 2 (antioxidant)", "NSC 58409", "KY 736", "2-tert-Butyl-4-(3-tert-butyl-4-hydroxy-5-methylphenyl)sulfanyl-6-methylphenol"], "SMILES": "C(C)(C)(C)C1=CC(SC2=CC(C(C)(C)C)=C(O)C(C)=C2)=CC(C)=C1O", "physical_data": {"Molecular Weight": "358.54", "Molecular Formula": "C22H30O2S", "Melting Point": "123-124 \u00b0C"}}