{"cas_no": "96-74-2", "cn_name": "2-\u7532\u781c\u57fa-4-\u785d\u57fa\u82ef\u80fa", "en_name": ["2-(Methylsulfonyl)-4-nitrobenzenamine", "Benzenamine, 2-(methylsulfonyl)-4-nitro-", "Aniline, 2-(methylsulfonyl)-4-nitro-", "2-(Methylsulfonyl)-4-nitrobenzenamine", "Methyl 2-amino-5-nitrophenyl sulfone", "2-(Methylsulfonyl)-4-nitroaniline", "2-Amino-5-nitrophenyl methyl sulfone", "1-Amino-2-methylsulphonyl-4-nitrobenzene", "2-Methanesulfonyl-4-nitroaniline"], "SMILES": "S(C)(=O)(=O)C1=CC(N(=O)=O)=CC=C1N", "physical_data": {"Molecular Weight": "216.21", "Molecular Formula": "C7H8N2O4S", "Melting Point": "203-204 \u00b0C"}}