{"cas_no": "96-77-5", "cn_name": "4-\u7f9f\u57fa-1,3-\u82ef\u4e8c\u78fa\u9178", "en_name": ["Phenol-2,4-disulfonic acid", "1,3-Benzenedisulfonic acid, 4-hydroxy-", "m-Benzenedisulfonic acid, 4-hydroxy-", "Phenoldisulfonic acid", "4-Hydroxy-1,3-benzenedisulfonic acid", "4-Hydroxy-m-benzenedisulfonic acid", "Phenol-2,4-disulfonic acid", "1-Hydroxy-2,4-disulfobenzene", "NSC 227947", "NSC 9798"], "SMILES": "S(=O)(=O)(O)C1=CC(S(=O)(=O)O)=CC=C1O", "physical_data": {"Molecular Weight": "254.24", "Molecular Formula": "C6H6O7S2", "Melting Point": "&gt;100 \u00b0C (decomp)"}}