{"cas_no": "96-75-3", "cn_name": "2-\u6c28\u57fa-5-\u785d\u57fa\u82ef\u78fa\u9178", "en_name": ["4-Nitroaniline-2-sulfonic acid", "Benzenesulfonic acid, 2-amino-5-nitro-", "2-Amino-5-nitrobenzenesulfonic acid", "p-Nitroaniline-o-sulfonic acid", "p-Nitroaniline-2-sulfonic acid", "4-Nitro-2-sulfoaniline", "2-Amino-5-nitrobenzene-1-sulfonic acid", "4-Nitroaniline-2-sulfonic acid", "1-Amino-4-nitrobenzene-2-sulfonic acid", "5-Nitro-2-aminobenzenesulfonic acid", "NSC 7540"], "SMILES": "S(=O)(=O)(O)C1=CC(N(=O)=O)=CC=C1N", "physical_data": {"Molecular Weight": "218.19", "Molecular Formula": "C6H6N2O5S", "Melting Point": "196 \u00b0C"}}