{"cas_no": "96-73-1", "cn_name": "\u5bf9\u785d\u57fa\u6c2f\u82ef\u90bb\u78fa\u9178", "en_name": ["2-Chloro-5-nitrobenzenesulfonic acid", "Benzenesulfonic acid, 2-chloro-5-nitro-", "2-Chloro-5-nitrobenzenesulfonic acid", "4-Nitro-1-chlorobenzene-2-sulfonic acid", "4-Chloro-1-nitro-3-sulfobenzene", "1-Chloro-4-nitrobenzene-2-sulfonic acid", "4-Nitro-2-sulfochlorobenzene", "NSC 5375", "3-Sulfo-4-chloronitrobenzene"], "SMILES": "S(=O)(=O)(O)C1=CC(N(=O)=O)=CC=C1Cl", "physical_data": {"Molecular Weight": "237.62", "Molecular Formula": "C6H4ClNO5S", "Melting Point": "169-170 \u00b0C"}}