{"cas_no": "96-76-4", "cn_name": "2,4-\u4e8c\u53d4\u4e01\u57fa\u82ef\u915a", "en_name": ["2,4-Di-tert-butylphenol", "Phenol, 2,4-bis(1,1-dimethylethyl)-", "Phenol, 2,4-di-tert-butyl-", "2,4-Bis(1,1-dimethylethyl)phenol", "2,4-Di-tert-butylphenol", "2,4-Di-tert-butylhydroxybenzene", "2,4-Bis(tert-butyl)phenol", "NSC 174502", "Agidol 10", "2,4-Ditert-butylphenol"], "SMILES": "C(C)(C)(C)C1=CC(C(C)(C)C)=CC=C1O", "physical_data": {"Molecular Weight": "206.32", "Molecular Formula": "C14H22O", "Boiling Point": "263.5 \u00b0C", "Melting Point": "56.5 \u00b0C"}}