{"cas_no": "96-70-8", "cn_name": "2-\u53d4\u4e01\u57fa-4-\u4e59\u57fa\u82ef\u915a", "en_name": ["2-tert-Butyl-4-ethylphenol", "Phenol, 2-(1,1-dimethylethyl)-4-ethyl-", "Phenol, 2-tert-butyl-4-ethyl-", "2-(1,1-Dimethylethyl)-4-ethylphenol", "2-tert-Butyl-4-ethylphenol", "4-Ethyl-2-tert-butylphenol"], "SMILES": "C(C)(C)(C)C1=CC(CC)=CC=C1O", "physical_data": {"Molecular Weight": "178.27", "Molecular Formula": "C12H18O", "Boiling Point": "250 \u00b0C @ Press: 760 Torr", "Melting Point": "23 \u00b0C"}}