{"cas_no": "96-72-0", "cn_name": "2-\u6c2f-5-\u785d\u57fa\u82ef\u78fa\u9170\u80fa", "en_name": ["2-Chloro-5-nitrobenzenesulfonamide", "Benzenesulfonamide, 2-chloro-5-nitro-", "2-Chloro-5-nitrobenzenesulfonamide", "NSC 105711", "2-Chloro-5-nitrobenzene-1-sulfonamide"], "SMILES": "S(N)(=O)(=O)C1=CC(N(=O)=O)=CC=C1Cl", "physical_data": {"Molecular Weight": "236.63", "Molecular Formula": "C6H5ClN2O4S", "Melting Point": "184-185 \u00b0C"}}