{"cas_no": "96-83-3", "cn_name": "\u7898\u756a\u9178", "en_name": ["(\u00b1)-Iopanoic acid", "Benzenepropanoic acid, 3-amino-\u03b1-ethyl-2,4,6-triiodo-", "Hydrocinnamic acid, 3-amino-\u03b1-ethyl-2,4,6-triiodo-", "3-Amino-\u03b1-ethyl-2,4,6-triiodobenzenepropanoic acid", "3-Amino-\u03b1-ethyl-2,4,6-triiodohydrocinnamic acid", "2-(3-Amino-2,4,6-triiodobenzyl)butyric acid", "3-(3-Amino-2,4,6-triiodophenyl)-2-ethylpropanoic acid", "Copanoic", "2-Ethyl-3-(3-amino-2,4,6-triiodophenyl)propionic acid", "Iodopanic acid", "Iodopanoic acid", "Iopanoic acid", "Jopagnost", "Telepaque", "\u03b1-Ethyl-\u03b2-(3-amino-2,4,6-triiodophenyl)propionic acid", "3-(3-Amino-2,4,6-triiodophenyl)-2-ethylpropionic acid", "Colepax", "Iopanoicum", "Cholevid", "Iopagnost", "Bilijodon", "Choladine", "Cistobil", "(\u00b1)-Iopanoic acid", "NSC 41706", "2-[(5-Amino-2,4,6-triiodophenyl)methyl]butanoic acid", "2-[(3-Amino-2,4,6-triiodophenyl)methyl]butanoic acid", "2-(3-Amino-2,4,6-triiodobenzyl)butanoic acid", "MeSH ID: D007480"], "SMILES": "C(C(C(O)=O)CC)C1=C(I)C(N)=C(I)C=C1I", "physical_data": {"Molecular Weight": "570.93", "Molecular Formula": "C11H12I3NO2", "Melting Point": "155.2 \u00b0C"}}