{"cas_no": "96-80-0", "cn_name": "N,N-\u4e8c\u5f02\u4e19\u57fa\u4e59\u9187\u80fa", "en_name": ["2-(Diisopropylamino)ethanol", "Ethanol, 2-[bis(1-methylethyl)amino]-", "Ethanol, 2-(diisopropylamino)-", "2-[Bis(1-methylethyl)amino]ethanol", "Diisopropylethanolamine", "2-(Diisopropylamino)ethanol", "(Diisopropylamino)ethanol", "(N,N-Diisopropylamino)ethanol", "2-(Diisopropylamino)ethyl alcohol", "N,N-Diisopropylethanolamine", "N,N-Diisopropyl-2-aminoethanol", "NSC 45475", "2-(N,N-Diisopropylamino)ethanol", "DIPAE", "Monoethanoldiisopropylamine", "2-[Bis(propan-2-yl)amino]ethan-1-ol"], "SMILES": "N(CCO)(C(C)C)C(C)C", "physical_data": {"Molecular Weight": "145.24", "Molecular Formula": "C8H19NO", "Boiling Point": "190 \u00b0C", "Melting Point": "-39 \u00b0C"}}