{"cas_no": "96-82-2", "cn_name": "\u4e73\u7cd6\u9178", "en_name": ["Lactobionic acid", "D-Gluconic acid, 4-O-\u03b2-D-galactopyranosyl-", "Lactonic acid", "Lactobionic acid", "4-O-\u03b2-D-Galactopyranosyl-D-gluconic acid", "4-(\u03b2-D-Galactosido)-D-gluconic acid", "D-Lactobionic acid", "Galactosylgluconic acid", "4-O-\u03b2-Galactopyranosyl-D-gluconic acid"], "SMILES": "C(OC1OC(CO)C(O)C(O)C1O)(C(C(C(O)=O)O)O)C(CO)O", "physical_data": {"Molecular Weight": "358.30", "Molecular Formula": "C12H22O12", "Melting Point": "80 \u00b0C"}}