{"cas_no": "96-81-1", "cn_name": "N-\u4e59\u9170-L-\u7f2c\u6c28\u9178", "en_name": ["Acetylvaline", "L-Valine, N-acetyl-", "Valine, N-acetyl-, L-", "N-Acetyl-L-valine", "N-Acetylvaline", "Acetylvaline", "L-N-Acetylvaline", "(S)-2-Acetamido-3-methylbutanoic acid", "(2S)-2-Acetamido-3-methylbutanoic acid"], "SMILES": "C(NC(C)=O)(C(C)C)C(O)=O", "physical_data": {"Molecular Weight": "159.18", "Molecular Formula": "C7H13NO3", "Melting Point": "144-146 \u00b0C"}}