{"cas_no": "96-99-1", "cn_name": "4-\u6c2f-3-\u785d\u57fa\u82ef\u7532\u9178", "en_name": ["4-Chloro-3-nitrobenzoic acid", "Benzoic acid, 4-chloro-3-nitro-", "4-Chloro-3-nitrobenzoic acid", "3-Nitro-4-chlorobenzoic acid", "6-Chloro-3-carboxynitrobenzene", "NSC 8440"], "SMILES": "N(=O)(=O)C1=CC(C(O)=O)=CC=C1Cl", "physical_data": {"Molecular Weight": "201.56", "Molecular Formula": "C7H4ClNO4", "Melting Point": "182.8 \u00b0C", "Density": "1.687 g/cm\u00b3"}}