{"cas_no": "96-90-2", "cn_name": "2-\u6c2f-4,6-\u4e8c\u785d\u57fa\u7532\u82ef", "en_name": ["1-Chloro-2-methyl-3,5-dinitrobenzene", "Benzene, 1-chloro-2-methyl-3,5-dinitro-", "Toluene, 2-chloro-4,6-dinitro-", "1-Chloro-2-methyl-3,5-dinitrobenzene", "6-Chloro-2,4-dinitrotoluene", "2-Chloro-4,6-dinitrotoluene"], "SMILES": "N(=O)(=O)C1=CC(N(=O)=O)=CC(Cl)=C1C", "physical_data": {"Molecular Weight": "216.58", "Molecular Formula": "C7H5ClN2O4", "Melting Point": "49 \u00b0C"}}