{"cas_no": "96-97-9", "cn_name": "5-\u785d\u57fa\u6c34\u6768\u9178", "en_name": ["5-Nitrosalicylic acid", "Benzoic acid, 2-hydroxy-5-nitro-", "Salicylic acid, 5-nitro-", "2-Hydroxy-5-nitrobenzoic acid", "Anilotic acid", "5-Nitro-2-hydroxybenzoic acid", "5-Nitrosalicylic acid", "NSC 175998", "NSC 183"], "SMILES": "C(O)(=O)C1=CC(N(=O)=O)=CC=C1O", "physical_data": {"Molecular Weight": "183.12", "Molecular Formula": "C7H5NO5", "Melting Point": "229.5 \u00b0C", "Density": "1.654 g/cm\u00b3 @ Temp: 13.5 \u00b0C"}}