{"cas_no": "96-98-0", "cn_name": "4-\u7532\u57fa-3-\u785d\u57fa\u82ef\u7532\u9178", "en_name": ["4-Methyl-3-nitrobenzoic acid", "Benzoic acid, 4-methyl-3-nitro-", "p-Toluic acid, 3-nitro-", "4-Methyl-3-nitrobenzoic acid", "3-Nitro-4-methylbenzoic acid", "3-Nitro-p-toluic acid", "NSC 50659"], "SMILES": "N(=O)(=O)C1=CC(C(O)=O)=CC=C1C", "physical_data": {"Molecular Weight": "181.15", "Molecular Formula": "C8H7NO4", "Melting Point": "164-165 \u00b0C"}}