{"cas_no": "96-96-8", "cn_name": "\u51b0\u67d3\u91cd\u6c2e\u7ec4\u5206 1", "en_name": ["4-Methoxy-2-nitroaniline", "Benzenamine, 4-methoxy-2-nitro-", "p-Anisidine, 2-nitro-", "4-Methoxy-2-nitrobenzenamine", "Amarthol Fast Bordeaux GP Base", "Amarthol Fast Bordeaux GP Salt", "Atul Fast Bordeaux GP Base", "Azobase NAS", "Azoene Fast Bordeaux GP Base", "Azoene Fast Bordeaux GP Salt", "Azofix Bordeaux GP", "Azogene Fast Bordeaux G", "Bordeaux Base Ciba IV", "Bordeaux Base Irga IV", "Bordeaux Base NGP", "Bordeaux GP Base", "Bordeaux GP Salt", "Bordeaux GPS Salt", "Bordeaux Salt Ciba IV", "Bordeaux Salt NGP", "Brentamine Fast Bordeaux GP Base", "Daito Bordeaux Base GP", "Daito Bordeaux Salt GP", "Devol Bordeaux B", "Devol Bordeaux GP Salt", "Diabase Bordeaux GP", "Diasalt Bordeaux GP", "Durgasol Bordeaux GP Salt", "Fast Bordeaux Base J", "Fast Bordeaux Base GP", "Fast Bordeaux GDN", "Fast Bordeaux 3NA Base", "Fast Bordeaux GP", "Fast Bordeaux GP Base", "Fast Bordeaux Salt J", "Fast Bordeaux Salt GP", "Fast Bordeaux Salt GPN", "Hansol Bordeaux GP Salt", "Hiltonil Fast Bordeaux GP Base", "Hiltosal Fast Bordeaux GP Salt", "Hindasol Bordeaux GP Salt", "Kako Bordeaux GP Base", "Kako Bordeaux GP Salt", "Kayaku Fast Bordeaux GP Base", "Kayaku Fast Bordeaux Salt GP", "Mitsui Bordeaux GP Base", "Mitsui Bordeaux GP Salt", "Naphthanil Bordeaux GP Base", "Naphthanil Diazo Bordeaux GP", "Naphtoelan Fast Bordeaux GP Base", "Naphtoelan Fast Bordeaux GP Salt", "Natasol Bordeaux GP Salt", "Pharmasol Bordeaux GP", "Pharmazoid Bordeaux GP", "Sanyo Fast Bordeaux GP Base", "Sanyo Fast Bordeaux Salt GP", "Shinnippon Fast Bordeaux GP Base", "Sugai Fast Bordeaux GP Base", "Symulon Bordeaux GP Base", "Tulabase Fast Bordeaux GP", "4-Methoxy-2-nitroaniline", "2-Nitro-p-anisidine", "2-Nitro-4-methoxyaniline", "4-Amino-3-nitroanisole", "3-Nitro-4-aminoanisole", "Fast Bordeaux GDN base", "Lake Maroon B base", "Naphthosol Fast Bordeaux GP Salt", "Acco Fast Bordeaux GP salt", "Fast Bordeaux GP-T Base", "1-Amino-2-nitro-4-methoxybenzene", "4-Methoxy-o-nitroaniline", "4-Amino-1-methoxy-3-nitrobenzene", "o-Nitro-p-anisidine", "4-Methoxy-2-nitrophenylamine", "NSC 5509", "2-Nitro-4-methoxybenzenamine", "p-Methoxy-o-nitroaniline"], "SMILES": "N(=O)(=O)C1=CC(OC)=CC=C1N", "physical_data": {"Molecular Weight": "168.15", "Molecular Formula": "C7H8N2O3", "Melting Point": "124 \u00b0C"}}