{"cas_no": "96-91-3", "cn_name": "\u82e6\u6c28\u9178", "en_name": ["Picramic acid", "Phenol, 2-amino-4,6-dinitro-", "2-Amino-4,6-dinitrophenol", "C.I. Oxidation Base 21", "4,6-Dinitro-2-aminophenol", "Fourrine 4R", "Fourrine 93", "Furro 4R", "Picramic acid", "Zoba 4R", "2,4-Dinitro-6-aminophenol", "6-Amino-2,4-dinitrophenol", "1-Amino-2-hydroxy-3,5-dinitrobenzene", "1-Amino-3,5-dinitro-2-hydroxybenzene", "1-Hydroxy-2-amino-4,6-dinitrobenzene", "NSC 36939", "NSC 4861"], "SMILES": "N(=O)(=O)C1=CC(N(=O)=O)=CC(N)=C1O", "physical_data": {"Molecular Weight": "199.12", "Molecular Formula": "C6H5N3O5", "Melting Point": "169 \u00b0C"}}