{"cas_no": "960-71-4", "cn_name": "\u4e09\u82ef\u57fa\u787c\u70f7", "en_name": ["Triphenylborane", "Borane, triphenyl-", "Borine, triphenyl-", "Triphenylborane", "Triphenylboron", "Triphenylborine"], "SMILES": "B(C1=CC=CC=C1)(C2=CC=CC=C2)C3=CC=CC=C3", "physical_data": {"Molecular Weight": "242.12", "Molecular Formula": "C18H15B", "Boiling Point": "208 \u00b0C @ Press: 14 Torr", "Melting Point": "147 \u00b0C"}}