{"cas_no": "960203-27-4", "cn_name": "\u6c22\u6eb4\u9178\u6c83\u66ff\u897f\u6c40", "en_name": ["Vortioxetine hydrobromide", "Piperazine, 1-[2-[(2,4-dimethylphenyl)thio]phenyl]-, hydrobromide (1:1)", "Lu AA 21004 hydrobromide", "Vortioxetine hydrobromide", "1-[2-[(2,4-Dimethylphenyl)thio]phenyl]piperazine hydrobromide", "Vothiaxetine"], "SMILES": "S(C1=C(C=CC=C1)N2CCNCC2)C3=C(C)C=C(C)C=C3.Br", "physical_data": {"Molecular Weight": "", "Molecular Formula": "C18H22N2S.BrH", "Melting Point": "218 \u00b0C"}}