{"cas_no": "96034-64-9", "cn_name": "\u7f8e\u7f57\u57f9\u5357\u4fa7\u94fe", "en_name": ["(4-Nitrophenyl)methyl (2S,4S)-2-[(dimethylamino)carbonyl]-4-mercapto-1-pyrrolidinecarboxylate", "1-Pyrrolidinecarboxylic acid, 2-[(dimethylamino)carbonyl]-4-mercapto-, (4-nitrophenyl)methyl ester, (2S,4S)-", "1-Pyrrolidinecarboxylic acid, 2-[(dimethylamino)carbonyl]-4-mercapto-, (4-nitrophenyl)methyl ester, (2S-cis)-", "(4-Nitrophenyl)methyl (2S,4S)-2-[(dimethylamino)carbonyl]-4-mercapto-1-pyrrolidinecarboxylate", "(2S,4S)-2-Dimethylaminocarbonyl-4-mercapto-1-(p-nitrobenzyloxycarbonyl)-pyrrolidine", "(2S,4S)-N,N-Dimethyl-1-(4-nitrobenzyloxycarbonyl)-4-mercaptopyrrolidine-2-carboxamide"], "SMILES": "C(OCC1=CC=C(N(=O)=O)C=C1)(=O)N2C(C(N(C)C)=O)CC(S)C2", "physical_data": {"Molecular Weight": "353.39", "Molecular Formula": "C15H19N3O5S", "Melting Point": "118-119 \u00b0C"}}