{"cas_no": "961-38-6", "cn_name": "\u4e09\u4e01\u82ef\u92a8", "en_name": ["2,4,6-Tris(1,1-dimethylethyl)benzenamine", "Benzenamine, 2,4,6-tris(1,1-dimethylethyl)-", "Aniline, 2,4,6-tri-tert-butyl-", "2,4,6-Tris(1,1-dimethylethyl)benzenamine", "2,4,6-Tri-tert-butylaniline", "2,4,6-Tris(tert-butyl)aniline", "2,4,6-Tritert-butylaniline"], "SMILES": "C(C)(C)(C)C1=C(N)C(C(C)(C)C)=CC(C(C)(C)C)=C1", "physical_data": {"Molecular Weight": "261.45", "Molecular Formula": "C18H31N", "Melting Point": "144.5-145.5 \u00b0C"}}