{"cas_no": "961-07-9", "cn_name": "2'-\u8131\u6c27\u9e1f\u82f7", "en_name": ["Deoxyguanosine", "Guanosine, 2\u2032-deoxy-", "2\u2032-Deoxyguanosine", "Deoxyguanosine", "Guanine, 9-(2-deoxy-\u03b2-D-erythro-pentofuranosyl)-", "Guanine deoxyriboside", "NSC 22837", "9-(2-Deoxy-\u03b2-D-erythro-pentofuranosyl)guanine", "212: PN: WO2012148497 TABLE: 6 claimed sequence", "13: PN: CN104513856 PAGE: 2 claimed sequence", "2\u2032-Deoxyguanine", "4: PN: WO2022090733 SEQID: 576 claimed sequence", "59: PN: WO2022263569 PAGE: 208 claimed sequence", "11: PN: EP4155418 SEQID: 65 claimed sequence", "6: PN: US20230098408 SEQID: 65 claimed sequence", "MeSH ID: D003849"], "SMILES": "O=C1C2=C(N(C=N2)C3OC(CO)C(O)C3)NC(N)=N1", "physical_data": {"Molecular Weight": "267.24", "Molecular Formula": "C10H13N5O4", "Melting Point": "250 \u00b0C"}}