{"cas_no": "961-68-2", "cn_name": "2,4-\u4e8c\u785d\u57fa\u4e8c\u82ef\u80fa", "en_name": ["2,4-Dinitrodiphenylamine", "Benzenamine, 2,4-dinitro-N-phenyl-", "Diphenylamine, 2,4-dinitro-", "2,4-Dinitro-N-phenylbenzenamine", "C.I. 10340", "Acetoquinone Yellow 5JZ", "C.I. Disperse Yellow 14", "2,4-Dinitrodiphenylamine", "Serisol Yellow 2G", "Supracet Yellow 3G", "N-(2,4-Dinitrophenyl)aniline", "o,p-Dinitrodiphenylamine", "N-Phenyl-2,4-dinitroaniline", "N-(2,4-Dinitrophenyl)benzenamine", "NSC 6150", "N-(2,4-Dinitrophenyl)-N-phenylamine", "Disperse yellow 14", "(2,4-Dinitro-phenyl)-phenyl-amine", "2,4-Dinitro-N-phenylaniline"], "SMILES": "N(C1=C(N(=O)=O)C=C(N(=O)=O)C=C1)C2=CC=CC=C2", "physical_data": {"Molecular Weight": "259.22", "Molecular Formula": "C12H9N3O4", "Melting Point": "159 \u00b0C"}}