{"cas_no": "961-69-3", "cn_name": "\u5de6\u65cb\u82ef\u7518\u6c28\u9178\u4e59\u57fa\u9093\u94be\u76d0", "en_name": ["Benzeneacetic acid, \u03b1-[(3-ethoxy-1-methyl-3-oxo-1-propen-1-yl)amino]-, potassium salt (1:1), (\u03b1R)-", "Benzeneacetic acid, \u03b1-[(3-ethoxy-1-methyl-3-oxo-1-propen-1-yl)amino]-, potassium salt (1:1), (\u03b1R)-", "Crotonic acid, 3-[(\u03b1-carboxybenzyl)amino]-, 1-ethyl ester, monopotassium salt, D-(-)-", "Benzeneacetic acid, \u03b1-[(3-ethoxy-1-methyl-3-oxo-1-propenyl)amino]-, monopotassium salt, (R)-", "Benzeneacetic acid, \u03b1-[(3-ethoxy-1-methyl-3-oxo-1-propenyl)amino]-, monopotassium salt, (\u03b1R)-", "Potassium D-(1-ethoxycarbonylpropen-2-yl)-\u03b1-aminophenylacetate"], "SMILES": "C(NC(=CC(OCC)=O)C)(C(O)=O)C1=CC=CC=C1.[K]", "physical_data": {"Molecular Weight": "", "Molecular Formula": "C14H17NO4.K", "Melting Point": "229-233 \u00b0C (decomp)"}}