{"cas_no": "961-11-5", "cn_name": "\u6740\u866b\u754f", "en_name": ["Phosphoric acid, 2-chloro-1-(2,4,5-trichlorophenyl)ethenyl dimethyl ester", "Phosphoric acid, 2-chloro-1-(2,4,5-trichlorophenyl)ethenyl dimethyl ester", "Phosphoric acid, 2-chloro-1-(2,4,5-trichlorophenyl)vinyl dimethyl ester", "Benzyl alcohol, 2,4,5-trichloro-\u03b1-(chloromethylene)-, dimethyl phosphate", "2-Chloro-1-(2,4,5-trichlorophenyl)vinyl dimethyl phosphate", "Dimethyl-1-(2,4,5-trichlorophenyl)-2-chlorovinyl phosphate", "Dimethyl 2,4,5-trichloro-\u03b1-(chloromethylene)benzyl phosphate", "IPO 8"], "SMILES": "C(OP(OC)(OC)=O)(=CCl)C1=C(Cl)C=C(Cl)C(Cl)=C1", "physical_data": {"Molecular Weight": "365.96", "Molecular Formula": "C10H9Cl4O4P", "Melting Point": "97.5 \u00b0C"}}