{"cas_no": "961-29-5", "cn_name": "\u5f02\u7518\u8349\u7d20", "en_name": ["Isoliquiritigenin", "2-Propen-1-one, 1-(2,4-dihydroxyphenyl)-3-(4-hydroxyphenyl)-, (2E)-", "Chalcone, 2\u2032,4,4\u2032-trihydroxy-", "2-Propen-1-one, 1-(2,4-dihydroxyphenyl)-3-(4-hydroxyphenyl)-, (E)-", "(2E)-1-(2,4-Dihydroxyphenyl)-3-(4-hydroxyphenyl)-2-propen-1-one", "Isoliquiritigenin", "2\u2032,4,4\u2032-Trihydroxychalcone", "GU 17", "Isoliquiritigen", "(E)-1-(2,4-Dihydroxyphenyl)-3-(4-hydroxyphenyl)prop-2-en-1-one"], "SMILES": "C(C=CC1=CC=C(O)C=C1)(=O)C2=C(O)C=C(O)C=C2", "physical_data": {"Molecular Weight": "256.25", "Molecular Formula": "C15H12O4", "Melting Point": "200 \u00b0C"}}