{"cas_no": "96107-95-8", "cn_name": "\u51a06\u70ef", "en_name": ["Calix[6]arene", "Heptacyclo[31.3.1.13,7.19,13.115,19.121,25.127,31]dotetraconta-1(37),3,5,7(42),9,11,13(41),15,17,19(40),21,23,25(39),27,29,31(38),33,35-octadecaene-37,38,39,40,41,42-hexol", "p-H-Calix[6]arene", "Calix[6]arenehexol", "Calix[6]arene", "H 0713"], "SMILES": "OC=1C=2CC=3C(O)=C(CC=4C(O)=C(CC=5C(O)=C(CC6=C(O)C(CC7=C(O)C(CC1C=CC2)=CC=C7)=CC=C6)C=CC5)C=CC4)C=CC3", "physical_data": {"Molecular Weight": "636.73", "Molecular Formula": "C42H36O6", "Melting Point": "420 \u00b0C"}}