{"cas_no": "96187-53-0", "cn_name": "\u5e03\u55b9\u90a3", "en_name": ["Brequinar", "4-Quinolinecarboxylic acid, 6-fluoro-2-(2\u2032-fluoro[1,1\u2032-biphenyl]-4-yl)-3-methyl-", "6-Fluoro-2-(2\u2032-fluoro[1,1\u2032-biphenyl]-4-yl)-3-methyl-4-quinolinecarboxylic acid", "Brequinar", "Biphenquinate", "BPQ"], "SMILES": "CC=1C(=NC2=C(C1C(O)=O)C=C(F)C=C2)C3=CC=C(C=C3)C4=C(F)C=CC=C4", "physical_data": {"Molecular Weight": "375.37", "Molecular Formula": "C23H15F2NO2", "Melting Point": "315-317 \u00b0C"}}