{"cas_no": "96182-53-5", "cn_name": "\u4e01\u57fa\u5627\u5576\u78f7", "en_name": ["Tebupirimfos", "Phosphorothioic acid, O-[2-(1,1-dimethylethyl)-5-pyrimidinyl] O-ethyl O-(1-methylethyl) ester", "MAT 7484", "BAY-MAT 7484", "Tebupirimphos", "Tebupirimfos", "Phostebupirim"], "SMILES": "O(P(OC(C)C)(OCC)=S)C=1C=NC(C(C)(C)C)=NC1", "physical_data": {"Molecular Weight": "318.37", "Molecular Formula": "C13H23N2O3PS", "Boiling Point": "152 \u00b0C"}}