{"cas_no": "96195-89-0", "cn_name": "\u6c34\u5408\u4e8c\u82ef\u57fa\u7898\u9178", "en_name": ["Iodonium, (2-carboxyphenyl)phenyl-, inner salt, hydrate (1:1)", "Iodonium, (2-carboxyphenyl)phenyl-, inner salt, hydrate (1:1)", "(o-Carboxyphenyl)phenyliodonium hydroxide, inner salt, monohydrate", "Iodonium, (2-carboxyphenyl)phenyl-, inner salt, monohydrate"], "SMILES": "[I+](C1=C(C([O-])=O)C=CC=C1)C2=CC=CC=C2.O", "physical_data": {"Molecular Weight": "", "Molecular Formula": "C13H9IO2.H2O", "Melting Point": "220-222 \u00b0C"}}