{"cas_no": "96206-92-7", "cn_name": "MPEP", "en_name": ["MPEP", "Pyridine, 2-methyl-6-(2-phenylethynyl)-", "Pyridine, 2-methyl-6-(phenylethynyl)-", "2-Picoline, 6-phenylethynyl-", "2-Methyl-6-(2-phenylethynyl)pyridine", "2-Methyl-6-(phenylethynyl)pyridine", "MPEP", "CHEMBL 66654"], "SMILES": "C(#CC1=CC=CC=C1)C=2N=C(C)C=CC2", "physical_data": {"Molecular Weight": "193.24", "Molecular Formula": "C14H11N", "Boiling Point": "124.5-126.5 \u00b0C @ Press: 0.5 Torr", "Melting Point": "45-45.5 \u00b0C"}}