{"cas_no": "96232-71-2", "cn_name": "4,5-\u4e8c\u6eb4-3-\u7f9f\u57fa\u567b\u5429-2-\u7fa7\u9178\u7532\u916f", "en_name": ["2-Thiophenecarboxylic acid, 4,5-dibromo-3-hydroxy-, methyl ester", "2-Thiophenecarboxylic acid, 4,5-dibromo-3-hydroxy-, methyl ester", "4,5-Dibromo-3-hydroxy-2-(methoxycarbonyl)thiophene", "4,5-Dibromo-3-hydroxythiophene-2-carboxylic acid methyl ester", "Methyl 4,5-dibromo-3-hydroxy-2-thiophenecarboxylate"], "SMILES": "C(OC)(=O)C1=C(O)C(Br)=C(Br)S1", "physical_data": {"Molecular Weight": "315.97", "Molecular Formula": "C6H4Br2O3S", "Melting Point": "130-131 \u00b0C"}}