{"cas_no": "96240-10-7", "cn_name": "4-\u6c28\u57fa-3-\u5f02\u4e19\u57fa-1,2,4-\u4e09\u5511\u5549-5-\u916e", "en_name": ["4-Amino-2,4-dihydro-5-(1-methylethyl)-3H-1,2,4-triazol-3-one", "3H-1,2,4-Triazol-3-one, 4-amino-2,4-dihydro-5-(1-methylethyl)-", "4-Amino-2,4-dihydro-5-(1-methylethyl)-3H-1,2,4-triazol-3-one", "3-Isopropyl-4-amino-1,2,4-triazol-5-one", "4-Amino-2,4-dihydro-5-isopropyl-1,2,4-triazol-3-one"], "SMILES": "C(C)(C)C=1N(N)C(=O)NN1", "physical_data": {"Molecular Weight": "142.16", "Molecular Formula": "C5H10N4O", "Melting Point": "172 \u00b0C"}}