{"cas_no": "96293-19-5", "cn_name": "(S)-(O-(N-\u82c4\u57fa\u812f\u6c28\u57fa\u9178)\u6c28\u57faI(\u82ef\u57fa)..N,N,N-\u954d", "en_name": ["(SP-4-4)-[N-[Phenyl[2-[[[(1R,2S)-1-(phenylmethyl)-2-pyrrolidinyl-\u03baN]carbonyl]amino-\u03baN]phenyl]methylene]glycinato(2-)-\u03baN,\u03baO]nickel", "Nickel, [N-[phenyl[2-[[[(1R,2S)-1-(phenylmethyl)-2-pyrrolidinyl-\u03baN]carbonyl]amino-\u03baN]phenyl]methylene]glycinato(2-)-\u03baN,\u03baO]-, (SP-4-4)-", "Nickel, [N-[phenyl[2-[[[1-(phenylmethyl)-2-pyrrolidinyl]carbonyl]amino]phenyl]methylene]glycinato(2-)-N,N\u2032,N\u2032\u2032,O1]-, [SP-4-4-(1R-cis)]-", "Glycine, N-[phenyl[2-[[[1-(phenylmethyl)-2-pyrrolidinyl]carbonyl]amino]phenyl]methylene]-, nickel complex, (S)-", "(SP-4-4)-[N-[Phenyl[2-[[[(1R,2S)-1-(phenylmethyl)-2-pyrrolidinyl-\u03baN]carbonyl]amino-\u03baN]phenyl]methylene]glycinato(2-)-\u03baN,\u03baO]nickel"], "SMILES": "C([N]12[Ni+2]34[N-](C=5C(C(=[N]3CC(=O)[O-]4)C6=CC=CC=C6)=CC=CC5)C(=O)C1CCC2)C7=CC=CC=C7", "physical_data": {"Molecular Weight": "", "Molecular Formula": "C27H25N3NiO3", "Melting Point": "210-213 \u00b0C"}}