{"cas_no": "963-16-6", "cn_name": "\u53cd-1,2-\u53cc(\u82ef\u57fa\u78fa\u9170\u57fa)\u4e59\u70ef", "en_name": ["1,1\u2032-[(1E)-1,2-Ethenediylbis(sulfonyl)]bis[benzene]", "Benzene, 1,1\u2032-[(1E)-1,2-ethenediylbis(sulfonyl)]bis-", "Ethylene, 1,2-bis(phenylsulfonyl)-, (E)-", "Benzene, 1,1\u2032-[1,2-ethenediylbis(sulfonyl)]bis-, (E)-", "1,1\u2032-[(1E)-1,2-Ethenediylbis(sulfonyl)]bis[benzene]", "(E)-1,2-Bis(phenylsulfonyl)ethene", "(E)-1,2-Bis(phenylsulfonyl)ethylene", "(E)-1,2-Bis(benzenesulfonyl)ethylene", "(E)-1,2-Di(phenylsulfonyl)ethylene", "trans-1,2-Bis(phenylsulfonyl)ethene", "(E)-1,2-Bis(phenylsulfonyl)ethylene", "trans-Bis(phenylsulfonyl)ethylene", "trans-1,2-Bis(phenylsulfonyl)ethylene", "NSC 202471", "trans-1,2-Bis(benzenesulfonyl)ethene", "trans-1,2-Di(phenylsulfonyl)ethylene", "(E)-1,2-Di(phenylsulfonyl)ethene"], "SMILES": "S(C=CS(=O)(=O)C1=CC=CC=C1)(=O)(=O)C2=CC=CC=C2", "physical_data": {"Molecular Weight": "308.37", "Molecular Formula": "C14H12O4S2", "Melting Point": "229 \u00b0C"}}