{"cas_no": "963-14-4", "cn_name": "\u78fa\u80fa\u4e59\u6c27\u57fa\u54d2\u55ea", "en_name": ["Sulfaethoxypyridazine", "Benzenesulfonamide, 4-amino-N-(6-ethoxy-3-pyridazinyl)-", "Sulfanilamide, N1-(6-ethoxy-3-pyridazinyl)-", "Sulfanilamide, N1-(6-ethoxy-3-pyridazinyl)-", "4-Amino-N-(6-ethoxy-3-pyridazinyl)benzenesulfonamide", "Sulfaethoxypyridazine", "Sulfanilamido-6-ethoxy-3-pyridazine", "Cysul"], "SMILES": "S(NC1=CC=C(OCC)N=N1)(=O)(=O)C2=CC=C(N)C=C2", "physical_data": {"Molecular Weight": "294.33", "Molecular Formula": "C12H14N4O3S", "Melting Point": "183 \u00b0C"}}