{"cas_no": "963-15-5", "cn_name": "\u987a-1,2-\u53cc(\u82ef\u57fa\u78fa\u9170\u57fa)\u4e59\u70ef", "en_name": ["1,1\u2032-[(1Z)-1,2-Ethenediylbis(sulfonyl)]bis[benzene]", "Benzene, 1,1\u2032-[(1Z)-1,2-ethenediylbis(sulfonyl)]bis-", "Ethylene, 1,2-bis(phenylsulfonyl)-, (Z)-", "Benzene, 1,1\u2032-[1,2-ethenediylbis(sulfonyl)]bis-, (Z)-", "1,1\u2032-[(1Z)-1,2-Ethenediylbis(sulfonyl)]bis[benzene]", "Z-1,2-Bis(phenylsulfonyl)ethylene", "(Z)-1,2-Bis(benzenesulfonyl)ethylene", "cis-1,2-Bis(phenylsulfonyl)ethylene", "(Z)-1,2-Di(phenylsulfonyl)ethylene", "cis-Bis(phenylsulfonyl)ethylene", "cis-1,2-Di(phenylsulfonyl)ethylene"], "SMILES": "S(C=CS(=O)(=O)C1=CC=CC=C1)(=O)(=O)C2=CC=CC=C2", "physical_data": {"Molecular Weight": "308.37", "Molecular Formula": "C14H12O4S2", "Melting Point": "99-100 \u00b0C"}}