{"cas_no": "963-39-3", "cn_name": "\u5730\u83ab\u897f\u6cee", "en_name": ["Demoxepam", "2H-1,4-Benzodiazepin-2-one, 7-chloro-1,3-dihydro-5-phenyl-, 4-oxide", "Ro 5-2092", "Demoxepam", "7-Chloro-2,3-dihydro-5-phenyl-1H-1,4-benzodiazepin-2-one 4-oxide", "7-Chloro-1,3-dihydro-5-phenyl-2H-1,4-benzodiazepin-2-one 4-oxide", "7-Chloro-5-phenyl-1,3-dihydro-2H-1,4-benzodiazepin-2-one 4-oxide", "Chlordiazepoxide lactam", "5-Phenyl-7-chloro-3H-1,4-benzodiazepin-2(1H)-one 4-oxide", "NSC 46007", "NSC 169898", "NSC 46077"], "SMILES": "O=N1=C(C=2C(NC(=O)C1)=CC=C(Cl)C2)C3=CC=CC=C3", "physical_data": {"Molecular Weight": "286.71", "Molecular Formula": "C15H11ClN2O2", "Melting Point": "235-236 \u00b0C (decomp)"}}