{"cas_no": "963-75-7", "cn_name": "5alpha-\u96c4\u753e-2-\u70ef-17-\u916e", "en_name": ["5\u03b1-Androst-2-en-17-one", "Androst-2-en-17-one, (5\u03b1)-", "5\u03b1-Androst-2-en-17-one", "(5\u03b1)-Androst-2-en-17-one", "Ba 2662", "17-Oxo-5\u03b1-androst-2-ene", "NSC 44506", "NSC 80614", "5\u03b1-Androst-2-ene-17-one", "5alpha-androst-2-en-17-one"], "SMILES": "CC12C3C(C4C(C)(CC3)C(=O)CC4)CCC1CC=CC2", "physical_data": {"Molecular Weight": "272.42", "Molecular Formula": "C19H28O", "Melting Point": "106-108 \u00b0C"}}