{"cas_no": "96314-26-0", "cn_name": "\u53cd-4-\u82ef\u57fa-L-\u812f\u6c28\u9178", "en_name": ["(4S)-4-Phenyl-L-proline", "L-Proline, 4-phenyl-, (4S)-", "L-Proline, 4-phenyl-, trans-", "Proline, 4-phenyl-", "(4S)-4-Phenyl-L-proline", "trans-4-Phenyl-L-proline"], "SMILES": "C(O)(=O)C1CC(CN1)C2=CC=CC=C2", "physical_data": {"Molecular Weight": "191.23", "Molecular Formula": "C11H13NO2", "Melting Point": "&gt;300 \u00b0C (decomp)"}}