{"cas_no": "96385-50-1", "cn_name": "3-\u785d\u57fa\u90bb\u82ef\u4e8c\u7532\u4e8c\u9170\u80fa", "en_name": ["3-Nitro-1,2-benzenedicarboxamide", "1,2-Benzenedicarboxamide, 3-nitro-", "3-Nitro-1,2-benzenedicarboxamide", "3-Nitrophthalamide"], "SMILES": "C(N)(=O)C1=C(C(N)=O)C=CC=C1N(=O)=O", "physical_data": {"Molecular Weight": "209.16", "Molecular Formula": "C8H7N3O4", "Melting Point": "204-204.5 \u00b0C"}}