{"cas_no": "964-52-3", "cn_name": "4-(2-\u4e8c\u7532\u6c28\u57fa\u4e59\u6c27\u57fa)-5-\u5f02\u4e19\u57fa-2-\u7532\u57fa\u916f\u76d0\u9178\u76d0", "en_name": ["Moxisylyte hydrochloride", "Phenol, 4-[2-(dimethylamino)ethoxy]-2-methyl-5-(1-methylethyl)-, 1-acetate, hydrochloride (1:1)", "Carvacrol, 5-[2-(dimethylamino)ethoxy]-, acetate (ester), hydrochloride", "Phenol, 4-[2-(dimethylamino)ethoxy]-2-methyl-5-(1-methylethyl)-, acetate (ester), hydrochloride", "Carvacrol, 5-[2-(dimethylamino)ethoxy]-, acetate, hydrochloride", "4-(2-Dimethylaminoethoxy)-5-isopropyl-2-methylphenyl acetate hydrochloride", "Opilon hydrochloride", "Thymoxamine hydrochloride", "Moxisylyte hydrochloride", "M 101", "M 101 (vasodilator)", "Carlytene", "Arlitine", "Moxyl", "Uroalpha", "Vasoklin", "Opilon"], "SMILES": "C(C)(C)C1=C(OCCN(C)C)C=C(C)C(OC(C)=O)=C1.Cl", "physical_data": {"Molecular Weight": "", "Molecular Formula": "C16H25NO3.ClH", "Melting Point": "208-210 \u00b0C"}}