{"cas_no": "96405-62-8", "cn_name": "\u54e5\u7eb3\u9999\u4e09\u9187", "en_name": ["(+)-Goniotriol", "D-xylo-Hept-2-enonic acid, 2,3-dideoxy-7-C-phenyl-, \u03b4-lactone, (7R)-", "Goniotriol", "(+)-Goniotriol"], "SMILES": "C(C(O)C1=CC=CC=C1)(O)C2C(O)C=CC(=O)O2", "physical_data": {"Molecular Weight": "250.25", "Molecular Formula": "C13H14O5", "Melting Point": "169-171 \u00b0C"}}