{"cas_no": "96449-92-2", "cn_name": "1-(4-CHLOROBENZYL)-5-OXOPYRROLIDINE-3-CARBOXYLIC", "en_name": ["1-[(4-Chlorophenyl)methyl]-5-oxo-3-pyrrolidinecarboxylic acid", "3-Pyrrolidinecarboxylic acid, 1-[(4-chlorophenyl)methyl]-5-oxo-", "1-[(4-Chlorophenyl)methyl]-5-oxo-3-pyrrolidinecarboxylic acid", "1-(4-Chlorobenzyl)-5-oxopyrrolidine-3-carboxylic acid"], "SMILES": "C(N1CC(C(O)=O)CC1=O)C2=CC=C(Cl)C=C2", "physical_data": {"Molecular Weight": "253.68", "Molecular Formula": "C12H12ClNO3", "Melting Point": "158-159 \u00b0C"}}