{"cas_no": "96489-71-3", "cn_name": "\u54d2\u87a8\u7075", "en_name": ["Pyridaben", "3(2H)-Pyridazinone, 4-chloro-2-(1,1-dimethylethyl)-5-[[[4-(1,1-dimethylethyl)phenyl]methyl]thio]-", "4-Chloro-2-(1,1-dimethylethyl)-5-[[[4-(1,1-dimethylethyl)phenyl]methyl]thio]-3(2H)-pyridazinone", "NCI 129", "NC 129", "Pyridaben", "Sanmite", "Nexter", "Damanlin", "BAS 300", "2-tert-Butyl-5-(4-tert-butylbenzylthio)-4-chloropyridazin-3(2H)-one", "Pyramite", "GWN 1715"], "SMILES": "S(CC1=CC=C(C(C)(C)C)C=C1)C2=C(Cl)C(=O)N(C(C)(C)C)N=C2", "physical_data": {"Molecular Weight": "364.93", "Molecular Formula": "C19H25ClN2OS", "Melting Point": "111-112 \u00b0C", "Density": "1.2 g/cm\u00b3 @ Temp: 20 \u00b0C"}}