{"cas_no": "965-52-6", "cn_name": "\u785d\u544b\u915a\u9170\u80bc", "en_name": ["Nifuroxazide", "Benzoic acid, 4-hydroxy-, 2-[(5-nitro-2-furanyl)methylene]hydrazide", "Benzoic acid, p-hydroxy-, (5-nitrofurfurylidene)hydrazide", "Benzoic acid, 4-hydroxy-, [(5-nitro-2-furanyl)methylene]hydrazide", "RC 30-109", "Nifuroxazide", "5-Nitro-2-furfurylidene-4-hydroxybenzhydrazide", "(5-Nitro-2-furfurylidene)(4-hydroxybenzoyl)hydrazine", "p-Hydroxybenzoic acid (5-nitrofurfurylidene)hydrazide", "1-(p-Hydroxybenzoyl)-2-(5-nitrofurfurylidene)hydrazine", "5-Nitro-2-furaldehyde p-hydroxybenzoylhydrazone", "Diarlidan", "Dicoferin", "Nifuroxazid", "Ercefurol", "Ercefuryl", "27-109RC", "Pentofuryl", "Bacifurane", "RC 27109", "Adral", "Enterofuril", "Antinal"], "SMILES": "C(=NNC(=O)C1=CC=C(O)C=C1)C=2OC(N(=O)=O)=CC2", "physical_data": {"Molecular Weight": "275.22", "Molecular Formula": "C12H9N3O5", "Melting Point": "298 \u00b0C"}}