{"cas_no": "965-90-2", "cn_name": "\u4e59\u57fa\u96cc\u70ef\u9187", "en_name": ["Ethylestrenol", "19-Norpregn-4-en-17-ol, (17\u03b1)-", "19-Nor-17\u03b1-pregn-4-en-17-ol", "(17\u03b1)-19-Norpregn-4-en-17-ol", "Durabolin-O", "Estrenolethyl", "17\u03b1-Ethyl-17\u03b2-hydroxyestr-4-ene", "Ethylnandrol", "17\u03b1-Ethyl-19-norpregn-4-en-17-ol", "Maxibalin", "Maxibolin", "Neodurabolin", "Orabolin", "Orgabolin", "Ethylestrenol", "17\u03b1-Ethylestr-4-en-17\u03b2-ol", "17\u03b1-Ethyl-17-hydroxyestr-4-ene", "17\u03b2-Hydroxy-17\u03b1-ethylestr-4-ene", "Duraboral", "Org 483", "Orgaboral", "NSC 37726", "Ethyloestrenol", "19-Norpregn-4-en-17\u03b1-ol", "MeSH ID: D005032"], "SMILES": "CC12C(C3C(CC1)C4C(CC3)=CCCC4)CCC2(CC)O", "physical_data": {"Molecular Weight": "288.47", "Molecular Formula": "C20H32O", "Melting Point": "76-78 \u00b0C"}}