{"cas_no": "965-93-5", "cn_name": "\u7f8e\u66f2\u52c3\u9f99", "en_name": ["Methyltrienolone", "Estra-4,9,11-trien-3-one, 17-hydroxy-17-methyl-, (17\u03b2)-", "Estra-4,9,11-trien-3-one, 17\u03b2-hydroxy-17-methyl-", "(17\u03b2)-17-Hydroxy-17-methylestra-4,9,11-trien-3-one", "R 1881", "17\u03b2-Hydroxy-17-methylestra-4,9,11-trien-3-one", "Methyltrienolone", "Metribolone", "3-Oxo-17\u03b2-hydroxy-17\u03b1-methylestra-4,9,11-triene", "17\u03b1-Methyl-17\u03b2-hydroxyestra-4,9,11-trien-3-one", "3-Oxo-17\u03b2-hydroxy-17-methylestra-4,9,11-triene", "17\u03b1-Methyltrienolone", "RU 1881", "17\u03b1-Methyl-3-oxo-4,9,11-estratrien-17\u03b2-ol", "17\u03b1-Methyl-17\u03b2-hydroxyestra-4,9(10),11-trien-3-one", "NSC 92858"], "SMILES": "CC12C(C3C(C=C1)=C4C(CC3)=CC(=O)CC4)CCC2(C)O", "physical_data": {"Molecular Weight": "284.39", "Molecular Formula": "C19H24O2", "Melting Point": "170 \u00b0C"}}