{"cas_no": "96517-97-4", "cn_name": "6,6'-\u53cc(\u6eb4\u7532\u57fa)-2,2'-\u8054\u5421\u5576", "en_name": ["6,6\u2032-Bis(bromomethyl)-2,2\u2032-bipyridine", "2,2\u2032-Bipyridine, 6,6\u2032-bis(bromomethyl)-", "6,6\u2032-Bis(bromomethyl)-2,2\u2032-bipyridine", "6,6\u2032-Bis(bromomethyl)-2,2\u2032-bipyridyl", "6,6\u2032-Di(bromomethyl)-2,2\u2032-bipyridine", "2-(Bromomethyl)-6-[6-(bromomethyl)pyridin-2-yl]pyridine"], "SMILES": "C(Br)C1=NC(=CC=C1)C=2N=C(CBr)C=CC2", "physical_data": {"Molecular Weight": "342.03", "Molecular Formula": "C12H10Br2N2", "Melting Point": "180-181 \u00b0C"}}