{"cas_no": "96525-23-4", "cn_name": "\u544b\u8349\u916e", "en_name": ["Flurtamone", "3(2H)-Furanone, 5-(methylamino)-2-phenyl-4-[3-(trifluoromethyl)phenyl]-", "3(2H)-Furanone, 5-(methylamino)-2-phenyl-4-[3-(trifluoromethyl)phenyl]-, (\u00b1)-", "5-(Methylamino)-2-phenyl-4-[3-(trifluoromethyl)phenyl]-3(2H)-furanone", "RE 40885", "Flurtamone", "Benchmark", "Fluortanone"], "SMILES": "N(C)C1=C(C(=O)C(O1)C2=CC=CC=C2)C3=CC(C(F)(F)F)=CC=C3", "physical_data": {"Molecular Weight": "333.30", "Molecular Formula": "C18H14F3NO2", "Melting Point": "152.5 \u00b0C"}}