{"cas_no": "96551-21-2", "cn_name": "\u53d4\u4e01\u57fa3-\u6eb4\u7532\u57fa-\u5432\u54da-1-\u7fa7\u9178\u916f", "en_name": ["1,1-Dimethylethyl 3-(bromomethyl)-1H-indole-1-carboxylate", "1H-Indole-1-carboxylic acid, 3-(bromomethyl)-, 1,1-dimethylethyl ester", "1,1-Dimethylethyl 3-(bromomethyl)-1H-indole-1-carboxylate", "1-(tert-Butoxycarbonyl)-3-(bromomethyl)-1H-indole", "3-(Bromomethyl)-1-(tert-butoxycarbonyl)indole", "1-(tert-Butoxycarbonyl)-3-(bromomethyl)indole", "3-(Bromomethyl)indole-1-carboxylic acid tert-butyl ester", "tert-Butyl 3-(bromomethyl)indole-1-carboxylate", "2-Methylpropan-2-yl 3-(bromomethyl)-1H-indole-1-carboxylate", "N-Boc-3-(bromomethyl)-1H-indole", "tert-Butyl 3-(bromomethyl)-1H-indole-1-carboxylate"], "SMILES": "C(OC(C)(C)C)(=O)N1C=2C(C(CBr)=C1)=CC=CC2", "physical_data": {"Molecular Weight": "310.19", "Molecular Formula": "C14H16BrNO2", "Melting Point": "106-107 \u00b0C"}}