{"cas_no": "96562-58-2", "cn_name": "(R)-(+)-2-(4-\u7f9f\u57fa\u82ef\u6c27\u57fa)\u4e19\u9178\u7532\u916f", "en_name": ["Methyl (2R)-2-(4-hydroxyphenoxy)propanoate", "Propanoic acid, 2-(4-hydroxyphenoxy)-, methyl ester, (2R)-", "Propanoic acid, 2-(4-hydroxyphenoxy)-, methyl ester, (R)-", "Methyl (2R)-2-(4-hydroxyphenoxy)propanoate", "Methyl (+)-2-(4-hydroxyphenoxy)propionate", "(R)-2-(4-Hydroxyphenoxy)propionic acid methyl ester", "Methyl (R)-2-(4-hydroxyphenoxy)propionate", "Methyl (R)-(+)-2-(4-hydroxyphenoxy)propionate"], "SMILES": "O(C(C(OC)=O)C)C1=CC=C(O)C=C1", "physical_data": {"Molecular Weight": "196.20", "Molecular Formula": "C10H12O4", "Melting Point": "62-64 \u00b0C"}}