{"cas_no": "96574-01-5", "cn_name": "\u4e39\u915a\u9178 A", "en_name": ["Salvianolic acid", "Benzenepropanoic acid, \u03b1-[[(2E)-3-[2-[(1E)-2-(3,4-dihydroxyphenyl)ethenyl]-3,4-dihydroxyphenyl]-1-oxo-2-propen-1-yl]oxy]-3,4-dihydroxy-, (\u03b1R)-", "Benzenepropanoic acid, \u03b1-[[3-[2-[2-(3,4-dihydroxyphenyl)ethenyl]-3,4-dihydroxyphenyl]-1-oxo-2-propenyl]oxy]-3,4-dihydroxy-, [R-(E,E)]-", "Benzenepropanoic acid, \u03b1-[[(2E)-3-[2-[(1E)-2-(3,4-dihydroxyphenyl)ethenyl]-3,4-dihydroxyphenyl]-1-oxo-2-propenyl]oxy]-3,4-dihydroxy-, (\u03b1R)-", "(\u03b1R)-\u03b1-[[(2E)-3-[2-[(1E)-2-(3,4-Dihydroxyphenyl)ethenyl]-3,4-dihydroxyphenyl]-1-oxo-2-propen-1-yl]oxy]-3,4-dihydroxybenzenepropanoic acid", "(+)-Salvianolic acid A", "Salvianolic acid A", "Dan phenolic acid A", "Salvianolic acid"], "SMILES": "C(=CC1=CC(O)=C(O)C=C1)C2=C(C=CC(OC(CC3=CC(O)=C(O)C=C3)C(O)=O)=O)C=CC(O)=C2O", "physical_data": {"Molecular Weight": "494.45", "Molecular Formula": "C26H22O10", "Melting Point": "156-157 \u00b0C"}}