{"cas_no": "96744-75-1", "cn_name": "U-69593", "en_name": ["N-Methyl-N-[(5R,7S,8S)-7-(1-pyrrolidinyl)-1-oxaspiro[4.5]dec-8-yl]benzeneacetamide", "Benzeneacetamide, N-methyl-N-[(5R,7S,8S)-7-(1-pyrrolidinyl)-1-oxaspiro[4.5]dec-8-yl]-", "Benzeneacetamide, N-methyl-N-[7-(1-pyrrolidinyl)-1-oxaspiro[4.5]dec-8-yl]-, [5R-(5\u03b1,7\u03b1,8\u03b2)]-", "1-Oxaspiro[4.5]decane, benzeneacetamide deriv.", "N-Methyl-N-[(5R,7S,8S)-7-(1-pyrrolidinyl)-1-oxaspiro[4.5]dec-8-yl]benzeneacetamide", "U 69593"], "SMILES": "N(C(CC1=CC=CC=C1)=O)(C)C2C(CC3(CC2)CCCO3)N4CCCC4", "physical_data": {"Molecular Weight": "356.50", "Molecular Formula": "C22H32N2O2", "Melting Point": "120-123 \u00b0C"}}