{"cas_no": "96784-54-2", "cn_name": "3-\u7532\u57fa-4-\u785d\u57fa\u82ef\u7532\u9170\u6c2f", "en_name": ["3-Methyl-4-nitrobenzonitrile", "Benzonitrile, 3-methyl-4-nitro-", "m-Tolunitrile, 4-nitro-", "3-Methyl-4-nitrobenzonitrile", "4-Nitro-3-methylbenzonitrile"], "SMILES": "N(=O)(=O)C1=C(C)C=C(C#N)C=C1", "physical_data": {"Molecular Weight": "162.15", "Molecular Formula": "C8H6N2O2", "Melting Point": "80-81 \u00b0C"}}