{"cas_no": "968-81-0", "cn_name": "\u918b\u78fa\u73af\u5df2\u8132", "en_name": ["Acetohexamide", "Benzenesulfonamide, 4-acetyl-N-[(cyclohexylamino)carbonyl]-", "Urea, 1-[(p-acetylphenyl)sulfonyl]-3-cyclohexyl-", "4-Acetyl-N-[(cyclohexylamino)carbonyl]benzenesulfonamide", "Acetohexamide", "1-(p-Acetylbenzenesulfonyl)-3-cyclohexylurea", "N-(p-Acetylphenylsulfonyl)-N\u2032-cyclohexylurea", "1-[(p-Acetylphenyl)sulfonyl]-3-cyclohexylurea", "Dymelor", "Dimelor", "Acetohexamid", "Ordimel", "Dimelin", "Dimelin (antidiabetic)", "U 14812", "Gamadiabet", "Hypoglicil", "Metaglucina", "Minoral", "Tsiklamid", "1-(4-Acetylphenyl)sulfonyl-3-cyclohexylurea", "MeSH ID: D000092"], "SMILES": "S(NC(NC1CCCCC1)=O)(=O)(=O)C2=CC=C(C(C)=O)C=C2", "physical_data": {"Molecular Weight": "324.40", "Molecular Formula": "C15H20N2O4S", "Melting Point": "188-190 \u00b0C"}}