{"cas_no": "968-49-0", "cn_name": "19-\u919b\u56fa\u916e\u96c4\u70ef\u4e8c\u916e", "en_name": ["19-Oxoandrostenedione", "Androst-4-en-19-al, 3,17-dioxo-", "3,17-Dioxoandrost-4-en-19-al", "3,17-Dioxo-4-androsten-19-al", "19-Aldoandrostenedione", "19-Aldoandrost-4-ene-3,17-dione", "19-Oxoandrost-4-ene-3,17-dione", "Androst-4-en-19-al-3,17-dione", "19-Oxoandrostenedione", "NSC 76985"], "SMILES": "C(=O)C12C3C(C4C(C)(CC3)C(=O)CC4)CCC1=CC(=O)CC2", "physical_data": {"Molecular Weight": "300.39", "Molecular Formula": "C19H24O3", "Melting Point": "129-133 \u00b0C"}}