{"cas_no": "968-21-8", "cn_name": "L-\u4eae\u6c28\u9170-L-\u916a\u6c28\u9178", "en_name": ["Leucyltyrosine", "L-Tyrosine, L-leucyl-", "Tyrosine, N-L-leucyl-, L-", "L-Tyrosine, N-L-leucyl-", "L-Leucyl-L-tyrosine", "Leucyltyrosine", "N-L-Leucyl-L-tyrosine", "81: PN: US20070066537 PAGE: 17 claimed protein", "26: PN: US20090239809 SEQID: 26 claimed protein", "75: PN: EP2161028 PAGE: 10 claimed protein", "3501: PN: WO2014063098 TABLE: 36 claimed protein", "76: PN: WO2012112690 SEQID: 76 claimed protein", "3462: PN: US20130123467 SEQID: 5050 claimed protein", "3: PN: KR20130113996 SEQID: 3 claimed protein", "1: PN: JP2014003971 PAGE: 23 claimed protein", "3: PN: WO2014097648 SEQID: 6 claimed protein", "4: PN: WO2014145242 PAGE: 31 claimed sequence", "10: PN: CN104593319 PAGE: 2 claimed sequence", "3: PN: WO2015170480 SEQID: 6 claimed protein", "12: PN: WO2017159699 SEQID: 36 claimed protein", "16: PN: WO2019059411 SEQID: 36 claimed protein", "47: PN: WO2021211467 SEQID: 200 claimed sequence", "23: PN: WO2022236049 SEQID: 23 claimed protein"], "SMILES": "C(C(NC(C(CC(C)C)N)=O)C(O)=O)C1=CC=C(O)C=C1", "physical_data": {"Molecular Weight": "294.35", "Molecular Formula": "C15H22N2O4", "Melting Point": "268.7-269.7 \u00b0C"}}