{"cas_no": "968-93-4", "cn_name": "\u777e\u5185\u916f\u916e", "en_name": ["Testolactone", "2H-Phenanthro[2,1-b]pyran-2,8(4bH)-dione, 3,4,4a,5,6,10a,10b,11,12,12a-decahydro-10a,12a-dimethyl-, (4aS,4bR,10aR,10bS,12aS)-", "13,17-Secoandrosta-1,4-dien-17-oic acid, 13-hydroxy-3-oxo-, \u03b4-lactone", "D-Homo-17a-oxaandrosta-1,4-diene-3,17-dione", "Testololactone, 1-dehydro-", "(4aS,4bR,10aR,10bS,12aS)-3,4,4a,5,6,10a,10b,11,12,12a-Decahydro-10a,12a-dimethyl-2H-phenanthro[2,1-b]pyran-2,8(4bH)-dione", "SQ 9538", "1-Dehydrotestololactone", "1,2-Didehydrotestololactone", "17a-Oxa-D-homo-1,4-androstadiene-3,17-dione", "Teslac", "Testolactone", "\u03941-Testololactone", "\u03941-Dehydrotestololactone", "1,2-Dehydrotestololactone", "Fludestrin", "Teolit", "Teslak", "Testolacton", "\u03941-Testolactone", "2H-Phenanthro[2,1-b]pyran-2,8(4bH)-dione, 3,4,4a,5,6,10a,10b,11,12,12a-decahydro-10a,12a-dimethyl-, [4aS-(4a\u03b1,4b\u03b2,10a\u03b2,10b\u03b1,12a\u03b2)]-", "NSC 23759", "MeSH ID: D013738"], "SMILES": "CC12C3C(C4C(C)(CC3)OC(=O)CC4)CCC1=CC(=O)C=C2", "physical_data": {"Molecular Weight": "300.39", "Molecular Formula": "C19H24O3", "Melting Point": "218-219 \u00b0C"}}