{"cas_no": "968-86-5", "cn_name": "4-\u82ef\u80fa\u57fa-1-\u82c4\u57fa-4-\u6c30\u57fa\u54cc\u5576", "en_name": ["4-(Phenylamino)-1-(phenylmethyl)-4-piperidinecarbonitrile", "4-Piperidinecarbonitrile, 4-(phenylamino)-1-(phenylmethyl)-", "Isonipecotonitrile, 4-anilino-1-benzyl-", "4-(Phenylamino)-1-(phenylmethyl)-4-piperidinecarbonitrile", "1-Benzyl-4-cyano-4-anilinopiperidine", "4-Anilino-4-cyano-1-benzylpiperidine", "NSC 73005", "1-Benzyl-4-(phenylamino)piperidine-4-carbonitrile", "4-(Phenylamino)-1-(phenylmethyl)-4-piperidinenitrile", "1-Benzyl-4-phenylamino-4-cyanopiperidine", "1-Benzyl-4-cyano-4-phenylaminopiperidine"], "SMILES": "N(C1(C#N)CCN(CC2=CC=CC=C2)CC1)C3=CC=CC=C3", "physical_data": {"Molecular Weight": "291.39", "Molecular Formula": "C19H21N3", "Melting Point": "144.8-146.2 \u00b0C"}}