{"cas_no": "96829-58-2", "cn_name": "\u5965\u5229\u53f8\u4ed6", "en_name": ["Tetrahydrolipstatin", "L-Leucine, N-formyl-, (1S)-1-[[(2S,3S)-3-hexyl-4-oxo-2-oxetanyl]methyl]dodecyl ester", "L-Leucine, N-formyl-, 1-[(3-hexyl-4-oxo-2-oxetanyl)methyl]dodecyl ester, [2S-[2\u03b1(R*),3\u03b2]]-", "Tetrahydrolipstatin", "(-)-Tetrahydrolipstatin", "Ro 18-0647/002", "Orlistat", "Xenical", "Listata", "Alli"], "SMILES": "C(C(OC(C(CC(C)C)NC=O)=O)CCCCCCCCCCC)C1C(CCCCCC)C(=O)O1", "physical_data": {"Molecular Weight": "495.73", "Molecular Formula": "C29H53NO5", "Melting Point": "39-41 \u00b0C"}}