{"cas_no": "96843-23-1", "cn_name": "1,5-\u4e8c\u6eb4-2,4-\u4e8c\u7898\u82ef", "en_name": ["1,5-Dibromo-2,4-diiodobenzene", "Benzene, 1,5-dibromo-2,4-diiodo-", "1,5-Dibromo-2,4-diiodobenzene"], "SMILES": "BrC1=C(I)C=C(I)C(Br)=C1", "physical_data": {"Molecular Weight": "487.70", "Molecular Formula": "C6H2Br2I2", "Melting Point": "166-167 \u00b0C"}}