{"cas_no": "96886-56-5", "cn_name": "(S)-2-\u6c28\u57fa-2-\u7532\u57fa-4-\u620a\u70ef\u9178", "en_name": ["(2R)-2-Amino-2-methyl-4-pentenoic acid", "4-Pentenoic acid, 2-amino-2-methyl-, (2R)-", "4-Pentenoic acid, 2-amino-2-methyl-, (R)-", "(2R)-2-Amino-2-methyl-4-pentenoic acid", "(R)-\u03b1-Allylalanine", "(R)-(+)-\u03b1-Allylalanine", "(2R)-2-Azaniumyl-2-methylpent-4-enoate"], "SMILES": "C(CC=C)(C(O)=O)(C)N", "physical_data": {"Molecular Weight": "129.16", "Molecular Formula": "C6H11NO2", "Melting Point": "296-299 \u00b0C"}}