{"cas_no": "969-99-3", "cn_name": "\u6c27\u6c2f\u4e19\u55ea", "en_name": ["Chlorpromazine sulfoxide", "10H-Phenothiazine-10-propanamine, 2-chloro-N,N-dimethyl-, 5-oxide", "Phenothiazine, 2-chloro-10-[3-(dimethylamino)propyl]-, 5-oxide", "Chlorpromazine sulfoxide", "Chlorpromazine sulphoxide", "Ba 2835", "Chlorpromazine S-oxide", "Opromazine", "Chlorpromazine 5-oxide", "Chlorpromazine 5-sulfoxide", "Aminazin sulfoxide", "NSC 170990"], "SMILES": "C(CCN(C)C)N1C=2C(S(=O)C=3C1=CC=CC3)=CC=C(Cl)C2", "physical_data": {"Molecular Weight": "334.86", "Molecular Formula": "C17H19ClN2OS", "Melting Point": "115 \u00b0C"}}