{"cas_no": "969-33-5", "cn_name": "\u76d0\u9178\u8d5b\u5e9a\u5576", "en_name": ["Cyproheptadine hydrochloride", "Piperidine, 4-(5H-dibenzo[a,d]cyclohepten-5-ylidene)-1-methyl-, hydrochloride (1:1)", "Piperidine, 4-(5H-dibenzo[a,d]cyclohepten-5-ylidene)-1-methyl-, hydrochloride", "Cyproheptadiene hydrochloride", "Periactin hydrochloride", "Cyproheptadine hydrochloride", "Periactin syrup", "Peritol", "Periactinol", "VUFB 3511", "Nuran", "Periactin", "Cycloheptadine Hydrochloride", "Ciplactin", "Practin", "Triactin", "1-Methyl-4-(5H-dibenzo[a,d]cyclohepten-5-ylidene)piperidine hydrochloride"], "SMILES": "CN1CCC(=C2C=3C(C=CC=4C2=CC=CC4)=CC=CC3)CC1.Cl", "physical_data": {"Molecular Weight": "", "Molecular Formula": "C21H21N.ClH", "Melting Point": "254-256.5 \u00b0C"}}