{"cas_no": "96948-64-0", "cn_name": "\u6c99\u4e01\u80fa\u9187EP\u6742\u8d28B", "en_name": ["\u03b1-[[(1,1-Dimethylethyl)amino]methyl]-4-hydroxybenzenemethanol", "Benzenemethanol, \u03b1-[[(1,1-dimethylethyl)amino]methyl]-4-hydroxy-", "Benzenemethanol, \u03b1-[[(1,1-dimethylethyl)amino]methyl]-4-hydroxy-, (\u00b1)-", "\u03b1-[[(1,1-Dimethylethyl)amino]methyl]-4-hydroxybenzenemethanol", "KWD 2066", "t-Butylnorsynephrine", "Buctopamine"], "SMILES": "C(CNC(C)(C)C)(O)C1=CC=C(O)C=C1", "physical_data": {"Molecular Weight": "209.28", "Molecular Formula": "C12H19NO2", "Melting Point": "172-173.5 \u00b0C"}}