{"cas_no": "96980-65-3", "cn_name": "N1-(2,4-\u4e8c\u6c1f\u82ef\u57fa)-2-\u6c2f\u4e59\u80fa", "en_name": ["2-Chloro-N-(2,4-difluorophenyl)acetamide", "Acetamide, 2-chloro-N-(2,4-difluorophenyl)-", "2-Chloro-N-(2,4-difluorophenyl)acetamide", "N-Chloroacetyl-2,4-difluoroaniline"], "SMILES": "N(C(CCl)=O)C1=C(F)C=C(F)C=C1", "physical_data": {"Molecular Weight": "205.59", "Molecular Formula": "C8H6ClF2NO", "Melting Point": "76-78 \u00b0C"}}