{"cas_no": "96992-71-1", "cn_name": "\u53cd\u5f0f-3-\u6c2f-2-\u4e19\u70ef\u57fa\u7f9f\u80fa\u76d0\u9178\u76d0", "en_name": ["Hydroxylamine, O-[(2E)-3-chloro-2-propen-1-yl]-, hydrochloride (1:1)", "Hydroxylamine, O-[(2E)-3-chloro-2-propen-1-yl]-, hydrochloride (1:1)", "Hydroxylamine, O-(3-chloro-2-propenyl)-, hydrochloride, (E)-", "Hydroxylamine, O-[(2E)-3-chloro-2-propenyl]-, hydrochloride", "(E)-O-(3-Chloro-2-propenyl)hydroxylamine hydrochloride"], "SMILES": "C(CON)=CCl.Cl", "physical_data": {"Molecular Weight": "", "Molecular Formula": "C3H6ClNO.ClH", "Melting Point": "180 \u00b0C"}}