{"cas_no": "97-09-6", "cn_name": "3-\u785d\u57fa-4-\u6c2f\u82ef\u78fa\u9170\u80fa", "en_name": ["4-Chloro-3-nitrobenzenesulfonamide", "Benzenesulfonamide, 4-chloro-3-nitro-", "4-Chloro-3-nitrobenzenesulfonamide", "NSC 512314", "4-Chloro-3-nitrobenzene-1-sulfonamide"], "SMILES": "N(=O)(=O)C1=CC(S(N)(=O)=O)=CC=C1Cl", "physical_data": {"Molecular Weight": "236.63", "Molecular Formula": "C6H5ClN2O4S", "Boiling Point": "175-176 \u00b0C", "Melting Point": "176 \u00b0C"}}