{"cas_no": "97-00-7", "cn_name": "2,4-\u4e8c\u785d\u57fa\u6c2f\u82ef", "en_name": ["1-Chloro-2,4-dinitrobenzene", "Benzene, 1-chloro-2,4-dinitro-", "1-Chloro-2,4-dinitrobenzene", "1,3-Dinitro-4-chlorobenzene", "2,4-Dinitrochlorobenzene", "2,4-Dinitro-1-chlorobenzene", "DNCB", "4-Chloro-1,3-dinitrobenzene", "Dinitrochlorobenzene", "2,4-Dinitrophenyl chloride", "CDNB", "6-Chloro-1,3-dinitrobenzene", "1-Chloro-2,4-nitrobenzene", "2-Chloro-1,5-dinitrobenzene", "NSC 6292", "MeSH ID: D004137"], "SMILES": "N(=O)(=O)C1=CC(N(=O)=O)=CC=C1Cl", "physical_data": {"Molecular Weight": "202.55", "Molecular Formula": "C6H3ClN2O4", "Boiling Point": "315 \u00b0C", "Melting Point": "54 \u00b0C", "Density": "1.7 g/cm\u00b3"}}