{"cas_no": "97-07-4", "cn_name": "\u90bb\u785d\u57fa\u5bf9\u7532\u781c\u57fa\u6c2f\u82ef", "en_name": ["1-Chloro-4-(methylsulfonyl)-2-nitrobenzene", "Benzene, 1-chloro-4-(methylsulfonyl)-2-nitro-", "Sulfone, 4-chloro-3-nitrophenyl methyl", "1-Chloro-4-(methylsulfonyl)-2-nitrobenzene", "4-Chloro-3-nitrophenyl methyl sulfone", "3-Nitro-4-chlorophenyl methyl sulfone", "4-(Methylsulfonyl)-2-nitrochlorobenzene", "2-Chloro-5-(methylsulfonyl)-1-nitrobenzene", "NSC 25818", "1-Chloro-4-methanesulfonyl-2-nitrobenzene"], "SMILES": "N(=O)(=O)C1=CC(S(C)(=O)=O)=CC=C1Cl", "physical_data": {"Molecular Weight": "235.64", "Molecular Formula": "C7H6ClNO4S", "Melting Point": "119-120 \u00b0C"}}