{"cas_no": "97-05-2", "cn_name": "5-\u78fa\u57fa\u6c34\u6768\u9178", "en_name": ["Sulfosalicylic acid", "Benzoic acid, 2-hydroxy-5-sulfo-", "Salicylic acid, 5-sulfo-", "2-Hydroxy-5-sulfobenzoic acid", "3-Carboxy-4-hydroxybenzenesulfonic acid", "5-Sulfosalicylic acid", "Sulfosalicylic acid", "Salicylsulfonic acid", "Sulphosalicylic acid", "5-Sulphosalicylic acid", "SSA", "5-(Hydroxysulfonyl)salicylic acid", "NSC 190565", "NSC 4741", "5-Sulfosalicyclic acid", "FD"], "SMILES": "C(O)(=O)C1=CC(S(=O)(=O)O)=CC=C1O", "physical_data": {"Molecular Weight": "218.18", "Molecular Formula": "C7H6O6S", "Melting Point": "120 \u00b0C"}}