{"cas_no": "97-08-5", "cn_name": "4-\u6c2f-3-\u785d\u57fa\u82ef\u78fa\u9170\u6c2f", "en_name": ["4-Chloro-3-nitrobenzenesulfonyl chloride", "Benzenesulfonyl chloride, 4-chloro-3-nitro-", "4-Chloro-3-nitrobenzenesulfonyl chloride", "Yellow Sulfon Chloride", "3-Nitro-4-chlorobenzenesulfonyl chloride", "4-Chloro-3-nitrophenylsulfonyl chloride", "4-Chloro-5-nitrobenzenesulfonyl chloride", "4-Chloro-3-nitrobenzene-1-sulfonyl chloride"], "SMILES": "N(=O)(=O)C1=CC(S(Cl)(=O)=O)=CC=C1Cl", "physical_data": {"Molecular Weight": "256.06", "Molecular Formula": "C6H3Cl2NO4S", "Melting Point": "58-60 \u00b0C"}}