{"cas_no": "97-02-9", "cn_name": "2,4-\u4e8c\u785d\u57fa\u82ef\u80fa", "en_name": ["2,4-Dinitroaniline", "Benzenamine, 2,4-dinitro-", "Aniline, 2,4-dinitro-", "2,4-Dinitrobenzenamine", "2,4-Dinitroaniline", "1-Amino-2,4-dinitrobenzene", "NSC 8731", "Dinitroaniline"], "SMILES": "N(=O)(=O)C1=CC(N(=O)=O)=CC=C1N", "physical_data": {"Molecular Weight": "183.12", "Molecular Formula": "C6H5N3O4", "Boiling Point": "333.6 \u00b0C", "Melting Point": "187.5-188 \u00b0C", "Density": "1.615 g/cm\u00b3 @ Temp: 14 \u00b0C"}}