{"cas_no": "97-16-5", "cn_name": "\u6740\u87a8\u8757", "en_name": ["Genite", "Phenol, 2,4-dichloro-, 1-benzenesulfonate", "Phenol, 2,4-dichloro-, benzenesulfonate", "Benzenesulfonic acid, 2,4-dichlorophenyl ester", "EM 923", "2,4-Dichlorophenyl benzenesulfonate", "2,4-Dichlorophenyl benzenesulphonate", "Genite 923", "Genite", "Genite EM 923", "Genitol 923", "Genite (insecticide)", "NSC 27323", "NSC 38761", "Genit"], "SMILES": "O(S(=O)(=O)C1=CC=CC=C1)C2=C(Cl)C=C(Cl)C=C2", "physical_data": {"Molecular Weight": "303.16", "Molecular Formula": "C12H8Cl2O3S", "Melting Point": "45-47 \u00b0C"}}