{"cas_no": "97-17-6", "cn_name": "\u9664\u7ebf\u78f7", "en_name": ["Dichlofenthion", "Phosphorothioic acid, O-(2,4-dichlorophenyl) O,O-diethyl ester", "VC 13", "ENT 17470", "Dichlofenthion", "O,O-Diethyl O-(2,4-dichlorophenyl) phosphorothioate", "ECP", "Nemacide", "VC 13 Nemacide", "O-(2,4-Dichlorophenyl) O,O-diethyl phosphorothioate", "VC 1-13", "Hexanema", "ECP (pesticide)", "VC 13 (pesticide)", "NSC 52964"], "SMILES": "O(P(OCC)(OCC)=S)C1=C(Cl)C=C(Cl)C=C1", "physical_data": {"Molecular Weight": "315.15", "Molecular Formula": "C10H13Cl2O3PS", "Boiling Point": "164-169 \u00b0C @ Press: 0.1 Torr", "Density": "1.300 g/cm\u00b3 @ Temp: 20 \u00b0C"}}