{"cas_no": "97-18-7", "cn_name": "\u786b\u6c2f\u915a", "en_name": ["Bithionol", "Phenol, 2,2\u2032-thiobis[4,6-dichloro-", "2,2\u2032-Thiobis[4,6-dichlorophenol]", "XL 7", "CP 3438", "Actamer", "Bidiphen", "Bithionol", "Bitin", "2-Hydroxy-3,5-dichlorophenyl sulphide", "Lorothidol", "Lorothiodol", "Neopellis", "Vancide BL", "Bis(2-hydroxy-3,5-dichlorophenyl) sulfide", "2,2\u2032-Dihydroxy-3,3\u2032,5,5\u2032-tetrachlorodiphenyl sulfide", "Bithin", "Bitionol", "Bisoxyphen", "D 26", "Nobacter", "TKhSD", "NSC 47129", "NSC 9872", "2,2-Thiobis(4,6-dichlorophenol)", "2,4-Dichloro-6-(3,5-dichloro-2-hydroxyphenyl)sulfanylphenol", "2,4-Dichloro-6-[(3,5-dichloro-2-hydroxyphenyl)sulfanyl]phenol", "MeSH ID: D001735"], "SMILES": "S(C1=C(O)C(Cl)=CC(Cl)=C1)C2=C(O)C(Cl)=CC(Cl)=C2", "physical_data": {"Molecular Weight": "356.05", "Molecular Formula": "C12H6Cl4O2S", "Melting Point": "188 \u00b0C", "Density": "1.73 g/cm\u00b3 @ Temp: 25 \u00b0C"}}