{"cas_no": "97-14-3", "cn_name": "N-\u4e59\u9170-DL-\u4e1d\u6c28\u9178", "en_name": ["N-Acetyl-DL-serine", "Serine, N-acetyl-", "Serine, N-acetyl-, DL-", "DL-Serine, N-acetyl-", "N-Acetylserine", "N-Acetyl-DL-serine", "NSC 525646", "2-Acetamido-3-hydroxypropanoic acid"], "SMILES": "C(NC(C)=O)(C(O)=O)CO", "physical_data": {"Molecular Weight": "147.13", "Molecular Formula": "C5H9NO4", "Melting Point": "131-132 \u00b0C"}}