{"cas_no": "97-24-5", "cn_name": "2,2\u2019-\u4e8c\u7f9f\u57fa-5,5\u2019-\u4e8c\u6c2f-\u4e8c\u82ef\u57fa\u786b\u919a", "en_name": ["Fenticlor", "Phenol, 2,2\u2032-thiobis[4-chloro-", "2,2\u2032-Thiobis[4-chlorophenol]", "D 25", "CR 305", "Bis(2-hydroxy-5-chlorophenyl) sulfide", "Novex", "Fenticlor", "S 7 (antimycotic)", "5,5\u2032-Dichloro-2,2\u2032-dihydroxydiphenyl sulfide", "Fentichlor", "Oksid", "2,2\u2032-Dihydroxy-5,5\u2032-dichlorophenyl sulfide", "D 25-Antimykotikum", "S 7", "Ovitrol", "HL 1050", "Meflorin", "Ph 549", "2,2\u2032-Dihydroxy-5,5\u2032-dichlorodiphenyl sulfide", "NSC 4112", "NSC 55636"], "SMILES": "S(C1=C(O)C=CC(Cl)=C1)C2=C(O)C=CC(Cl)=C2", "physical_data": {"Molecular Weight": "287.16", "Molecular Formula": "C12H8Cl2O2S", "Melting Point": "174 \u00b0C"}}