{"cas_no": "97-23-4", "cn_name": "\u53cc\u6c2f\u915a", "en_name": ["Dichlorophen", "Phenol, 2,2\u2032-methylenebis[4-chloro-", "2,2\u2032-Methylenebis[4-chlorophenol]", "G 4", "Anthiphen", "Bis(5-chloro-2-hydroxyphenyl)methane", "Bis(2-hydroxy-5-chlorophenyl)methane", "DDDM", "DDM", "Dicestal", "5,5\u2032-Dichloro-2,2\u2032-dihydroxydiphenylmethane", "Dichlorophen B", "Dichlorophen", "Dichlorophene", "Dichlorphen", "Didroxan", "Didroxane", "2,2\u2032-Dihydroxy-5,5\u2032-dichlorodiphenylmethane", "Diphentane 70", "Korium", "Panacide", "Prevental", "Preventol GDC", "Taeniatol", "Teniathane", "Teniatol", "Diphenthane 70", "Preventol GD", "Dichlorophene 10", "Di(5-Chloro-2-hydroxyphenyl)methane", "Hyosan", "Plath-Lyse", "Bis(chlorohydroxyphenyl)methane", "Gefir", "G 4 Pure", "G 4 Technical", "Fungicide GM", "Fungicide M", "Dichlorofen", "Antifen", "Difentan", "Teniotol", "Gingivit", "Cordocel", "Halenol", "Vermithana", "Embephen", "Palacel", "Preventol", "Sindar G 4", "Sandocide", "Giv Gard G 4-40", "NSC 38642", "NSC 39467", "Diclorofen", "M 213 (biocide)", "M 213", "4,4\u2032-Dichloro-2,2\u2032-methylenediphenol", "Xanbac"], "SMILES": "C(C1=C(O)C=CC(Cl)=C1)C2=C(O)C=CC(Cl)=C2", "physical_data": {"Molecular Weight": "269.12", "Molecular Formula": "C13H10Cl2O2", "Melting Point": "177-178 \u00b0C"}}