{"cas_no": "97-29-0", "cn_name": "2,2',4,4'-\u56db\u7f9f\u57fa\u4e8c\u82ef\u786b\u919a", "en_name": ["4,4\u2032-Thiobis[1,3-benzenediol]", "1,3-Benzenediol, 4,4\u2032-thiobis-", "Resorcinol, 4,4\u2032-thiodi-", "4,4\u2032-Thiobis[1,3-benzenediol]", "4,4\u2032-Thiobis(resorcinol)", "4,4\u2032-Diresorcyl sulfide", "4,4\u2032-Thiodiresorcinol", "Bis(2,4-dihydroxyphenyl) sulfide", "2,2\u2032,4,4\u2032-Tetrahydroxydiphenyl sulfide", "2,2\u2032,4,4\u2032-Tetrahydroxydiphenyl thioether", "NSC 59828", "2,2\u2032,4,4\u2032-Tetrahydroxybiphenyl sulfide"], "SMILES": "S(C1=C(O)C=C(O)C=C1)C2=C(O)C=C(O)C=C2", "physical_data": {"Molecular Weight": "250.27", "Molecular Formula": "C12H10O4S", "Melting Point": "186-187 \u00b0C"}}