{"cas_no": "97-36-9", "cn_name": "2,4-\u4e8c\u7532\u57fa-N-\u4e59\u9170\u4e59\u9170\u82ef\u80fa", "en_name": ["N-(2,4-Dimethylphenyl)-3-oxobutanamide", "Butanamide, N-(2,4-dimethylphenyl)-3-oxo-", "2\u2032,4\u2032-Acetoacetoxylidide", "N-(2,4-Dimethylphenyl)-3-oxobutanamide", "1-Acetoacetylamino-2,4-dimethylbenzene", "Acetoacetic acid m-xylidide", "Acetoaceto-m-xylidide", "Acetoacetyl-m-xylidide", "2,4-Acetoacetoxylidide", "N-Acetoacetyl-2,4-xylidine", "2\u2032,4\u2032-Dimethylacetoacetanilide", "o,p-Dimethylacetoacetanilide", "NSC 8398", "N-(2,4-Dimethylphenyl)acetoacetamide"], "SMILES": "N(C(CC(C)=O)=O)C1=C(C)C=C(C)C=C1", "physical_data": {"Molecular Weight": "205.25", "Molecular Formula": "C12H15NO2", "Melting Point": "175-176 \u00b0C"}}