{"cas_no": "97-39-2", "cn_name": "\u4e8c\u90bb\u7532\u82ef\u80cd", "en_name": ["Di-o-tolylguanidine", "Guanidine, N,N\u2032-bis(2-methylphenyl)-", "Guanidine, 1,3-di-o-tolyl-", "N,N\u2032-Bis(2-methylphenyl)guanidine", "1,3-Bis(o-tolyl)guanidine", "Di-o-tolylguanidine", "N,N\u2032-Di-o-tolylguanidine", "DOTG", "Eveite DOTG", "Vulkacit DOTG", "N,N\u2032-Di-o-toluylguanidine", "1,3-Di-o-tolylguanidine", "Nocceler DT", "1,3-Di-2-tolylguanidine", "DTG", "CNS 1001", "Soxinol DT", "Sanceler DT", "Vulcafor DOTG", "Akrochem DOTG", "1,3-Di-ortho-tolylguanidine", "NSC 132023", "NSC 473", "Rhenogran DOTG 70", "1,2-Bis(2-methylphenyl)guanidine"], "SMILES": "N(C(NC1=C(C)C=CC=C1)=N)C2=C(C)C=CC=C2", "physical_data": {"Molecular Weight": "239.32", "Molecular Formula": "C15H17N3", "Melting Point": "179 \u00b0C", "Density": "1.10 g/cm\u00b3 @ Temp: 20 \u00b0C"}}