{"cas_no": "97-44-9", "cn_name": "\u963f\u897f\u592a\u677e", "en_name": ["N-Acetyl-4-hydroxy-m-arsanilic acid", "Arsonic acid, As-[3-(acetylamino)-4-hydroxyphenyl]-", "m-Arsanilic acid, N-acetyl-4-hydroxy-", "Arsonic acid, [3-(acetylamino)-4-hydroxyphenyl]-", "As-[3-(Acetylamino)-4-hydroxyphenyl]arsonic acid", "3-Acetamido-4-hydroxybenzenearsonic acid", "Acetarsol", "Acetarsone", "Acetphenarsine", "3-Acetylamino-4-hydroxyphenylarsonic acid", "3-Acetylamino-4-hydroxyphenyl-1-arsonic acid", "N-Acetyl-4-hydroxy-m-arsanilic acid", "Amarsan", "Amoebal", "Arsaphen", "Chrlich 594", "Devegan", "Disparicida", "Dynarsan", "Ehrlich 594", "Fourneau 190", "Ginarsol", "Goyl", "Kharophen", "Kubarsol", "Limarsol", "Malagride", "Monargan", "Nilacid", "Oralcid", "Orarsan", "Osarsal", "Osarsol", "Osvarsan", "Pallicid", "Paroxyl", "Spirocid", "Spirozid", "Stovarsol", "Stovarsolan", "SVC", "Vagisept", "Osarsole", "190F", "F 190", "Gynoplix", "3-Acetamido-4-hydroxyphenylarsonic acid", "Vagoflor", "Mexyl", "Arsonine", "Sanogyl", "NSC 13160", "NSC 3247"], "SMILES": "N(C(C)=O)C1=CC([As](=O)(O)O)=CC=C1O", "physical_data": {"Molecular Weight": "275.09", "Molecular Formula": "C8H10AsNO5", "Melting Point": "220-221 \u00b0C", "Density": "1.0325 g/cm\u00b3 @ Temp: 15 \u00b0C"}}