{"cas_no": "97-41-6", "cn_name": "\u83ca\u9178\u4e59\u916f", "en_name": ["Ethyl chrysanthemate", "Cyclopropanecarboxylic acid, 2,2-dimethyl-3-(2-methyl-1-propen-1-yl)-, ethyl ester", "Cyclopropanecarboxylic acid, 2,2-dimethyl-3-(2-methylpropenyl)-, ethyl ester", "Cyclopropanecarboxylic acid, 2,2-dimethyl-3-(2-methyl-1-propenyl)-, ethyl ester", "Chrysanthemummonocarboxylic acid, ethyl ester", "Ethyl chrysanthemate", "Ethyl chrysanthemumate", "Chrysanthemic acid ethyl ester", "Chrysanthemumic acid ethyl ester", "Ethyl 2,2-dimethyl-3-(2-methyl-1-propenyl)cyclopropanecarboxylate", "NSC 10819"], "SMILES": "C(=C(C)C)C1C(C(OCC)=O)C1(C)C", "physical_data": {"Molecular Weight": "196.29", "Molecular Formula": "C12H20O2", "Boiling Point": "34-37 \u00b0C @ Press: 0.05 Torr"}}