{"cas_no": "97-42-7", "cn_name": "2-\u7532\u57fa-5-(2-\u4e19\u70ef\u57fa)-2-\u73af\u5df1\u70ef-1-\u9187\u4e59\u9178\u916f", "en_name": ["Carvyl acetate", "2-Cyclohexen-1-ol, 2-methyl-5-(1-methylethenyl)-, 1-acetate", "p-Mentha-6,8-dien-2-ol, acetate", "2-Cyclohexen-1-ol, 2-methyl-5-(1-methylethenyl)-, acetate", "Carveol acetate", "Carvyl acetate", "Carveyl acetate", "(2-Methyl-5-prop-1-en-2-ylcyclohex-2-en-1-yl) acetate"], "SMILES": "O(C(C)=O)C1CC(C(C)=C)CC=C1C", "physical_data": {"Molecular Weight": "194.27", "Molecular Formula": "C12H18O2", "Boiling Point": "128-132 \u00b0C @ Press: 14 Torr", "Density": "1.0038 g/cm\u00b3 @ Temp: 20 \u00b0C"}}