{"cas_no": "97-52-9", "cn_name": "2-\u7532\u6c27\u57fa-4-\u785d\u57fa\u82ef\u80fa", "en_name": ["2-Methoxy-4-nitroaniline", "Benzenamine, 2-methoxy-4-nitro-", "o-Anisidine, 4-nitro-", "Fast Red B Base", "2-Methoxy-4-nitrobenzenamine", "C.I. 37125", "Amarthol Fast Red B Base", "Azoene Fast Red B Base", "Brentamine Fast Red B Base", "Dainichi Fast Red B Base", "Daito Red Base B", "Devol Red E", "Diabase Red B", "Fast Red Base B", "Fast Red 5NA Base", "Hiltonil Fast Red B Base", "Kako Red B Base", "Kayaku Red B Base", "Mitsui Red B Base", "Naphthanil Red B Base", "Naphtoelan Red B Base", "PNOA", "Red B Base", "Red Base Ciba V", "Red Base Irga V", "Red Base NB", "Sanyo Fast Red B Base", "Shinnippon Fast Red B Base", "Showa Fast Red B Base", "Symulon Red B Base", "2-Methoxy-4-nitroaniline", "4-Amino-3-methoxynitrobenzene", "1-Amino-2-methoxy-4-nitrobenzene", "2-Amino-5-nitroanisole", "4-Nitro-o-anisidine", "4-Nitro-6-methoxyaniline", "Azoamine Pink O", "p-Nitro-o-anisidine", "2-Amino-1-methoxy-5-nitrobenzene", "Fast Red B-T Base", "3-Nitro-6-aminoanisole", "3-Methoxy-4-aminonitrobenzene", "4-Nitro-2-methoxyaniline", "NSC 4130", "o-Methoxy-p-nitroaniline"], "SMILES": "O(C)C1=CC(N(=O)=O)=CC=C1N", "physical_data": {"Molecular Weight": "168.15", "Molecular Formula": "C7H8N2O3", "Melting Point": "136-139 \u00b0C"}}