{"cas_no": "97-50-7", "cn_name": "5-\u6c2f-2,4-\u4e8c\u7532\u6c27\u57fa\u82ef\u80fa", "en_name": ["5-Chloro-2,4-dimethoxyaniline", "Benzenamine, 5-chloro-2,4-dimethoxy-", "Aniline, 5-chloro-2,4-dimethoxy-", "5-Chloro-2,4-dimethoxybenzenamine", "5-Chloro-2,4-dimethoxyaniline", "5-Chloro-2,4-dimethoxyaminobenzene", "ITR Amine", "3-Chloro-4,6-dimethoxyaniline", "NSC 50657", "(3-Chloro-4,6-dimethoxyphenyl)amine", "5-Chloro-2,4-dimethoxyphenylamine"], "SMILES": "O(C)C1=CC(OC)=C(N)C=C1Cl", "physical_data": {"Molecular Weight": "187.62", "Molecular Formula": "C8H10ClNO2", "Melting Point": "91 \u00b0C"}}