{"cas_no": "97-54-1", "cn_name": "\u5f02\u4e01\u9999\u915a", "en_name": ["Isoeugenol", "Phenol, 2-methoxy-4-(1-propen-1-yl)-", "Phenol, 2-methoxy-4-propenyl-", "Phenol, 2-methoxy-4-(1-propenyl)-", "2-Methoxy-4-(1-propen-1-yl)phenol", "4-Hydroxy-3-methoxy-1-propenylbenzene", "Isoeugenol", "2-Methoxy-4-propenylphenol", "3-Methoxy-4-hydroxy-1-propenylbenzene", "4-Propenylguaiacol", "2-Methoxy-4-(1-propenyl)phenol", "iso-Eugenol", "1-(3-Methoxy-4-hydroxyphenyl)-1-propene", "NSC 6769", "4-Hydroxy-3-methoxy-\u03b2-methylstyrene", "4-(1-Propenyl) Guaiacol", "4-Propenyl-2-methoxyphenol"], "SMILES": "O(C)C1=CC(C=CC)=CC=C1O", "physical_data": {"Molecular Weight": "164.20", "Molecular Formula": "C10H12O2", "Boiling Point": "266 \u00b0C", "Melting Point": "-10 \u00b0C", "Density": "1.0869 g/cm\u00b3 @ Temp: 20 \u00b0C"}}