{"cas_no": "97-56-3", "cn_name": "\u90bb\u6c28\u57fa\u5076\u6c2e\u7532\u82ef", "en_name": ["o-Aminoazotoluene", "Benzenamine, 2-methyl-4-[2-(2-methylphenyl)diazenyl]-", "C.I. Solvent Yellow 3", "Benzenamine, 2-methyl-4-[(2-methylphenyl)azo]-", "o-Toluidine, 4-o-tolylazo-", "2-Methyl-4-[2-(2-methylphenyl)diazenyl]benzenamine", "C.I. 11160", "C.I. 11160B", "o-AT", "Brasilazina Oil Yellow R", "2\u2032,3-Dimethyl-4-aminoazobenzene", "Fast Yellow AT", "Fat Yellow B", "Hidaco Oil Yellow", "OAAT", "Oil Yellow 21", "Oil Yellow I", "Oil Yellow C", "Oil Yellow 2R", "Oil Yellow 2681", "Oil Yellow AT", "Organol Yellow 2T", "Somalia Yellow R", "o-Aminoazotoluene", "4-(o-Tolylazo)-o-toluidine", "4-Amino-2\u2032,3-dimethylazobenzene", "2-Methyl-4-[(o-tolyl)azo]aniline", "NSC 1797", "NSC 26821", "2,3\u2032-Dimethyl-4\u2032-aminoazobenzene", "Solvent Yellow 3", "Fast Garnet GBC Base", "2-Methyl-4-[(2-methylphenyl)diazenyl]amine", "2-Aminoazotoluene"], "SMILES": "N(=NC1=CC(C)=C(N)C=C1)C2=C(C)C=CC=C2", "physical_data": {"Molecular Weight": "225.29", "Molecular Formula": "C14H15N3", "Melting Point": "101-102 \u00b0C"}}