{"cas_no": "97-53-0", "cn_name": "\u4e01\u9999\u915a", "en_name": ["Eugenol", "Phenol, 2-methoxy-4-(2-propen-1-yl)-", "Phenol, 4-allyl-2-methoxy-", "Phenol, 2-methoxy-4-(2-propenyl)-", "2-Methoxy-4-(2-propen-1-yl)phenol", "4-Allylguaiacol", "4-Allyl-2-methoxyphenol", "Caryophyllic acid", "Eugenic acid", "Eugenol", "p-Allylguaiacol", "p-Eugenol", "2-Methoxy-4-allylphenol", "4-Hydroxy-3-methoxyallylbenzene", "2-Methoxy-1-hydroxy-4-allylbenzene", "4-Allyl-1-hydroxy-2-methoxybenzene", "1-Allyl-4-hydroxy-3-methoxybenzene", "2-Hydroxy-5-allylanisole", "3-(4-Hydroxy-3-methoxyphenyl)-1-propene", "2-Methoxy-4-(2\u2032-propenyl)phenol", "3-(3-Methoxy-4-hydroxyphenyl)propene", "2-Methoxy-4-(2-propenyl)phenol", "Allylguaiacol", "NSC 209525", "NSC 8895", "Dentogum", "Bioxeda", "2-Methoxy-4-[2-allyl]phenol", "AQUI-S 20E", "4-Allenylguaiacol", "5-Allylguaiacol", "1-Allyl-3-methoxy-4-hydroxybenzene", "MeSH ID: D005054"], "SMILES": "O(C)C1=CC(CC=C)=CC=C1O", "physical_data": {"Molecular Weight": "164.20", "Molecular Formula": "C10H12O2", "Boiling Point": "253.2 \u00b0C @ Press: 760 Torr", "Melting Point": "-9.2--9.1 \u00b0C", "Density": "1.0664 g/cm\u00b3 @ Temp: 20 \u00b0C"}}