{"cas_no": "97-59-6", "cn_name": "\u5c3f\u56ca\u7d20", "en_name": ["Allantoin", "Urea, N-(2,5-dioxo-4-imidazolidinyl)-", "Allantoin", "Urea, (2,5-dioxo-4-imidazolidinyl)-", "N-(2,5-Dioxo-4-imidazolidinyl)urea", "Cordianine", "Glyoxyldiureide", "5-Ureidohydantoin", "Allantol", "Sebical", "Glyoxyldiureid", "Glyoxylic diureide", "(2,5-Dioxo-4-imidazolidinyl)urea", "DL-Allantoin", "(\u00b1)-Allantoin", "Psoralon", "Septalan", "NSC 7606", "Allantion", "SD 101", "1-(2,5-Dioxoimidazolidin-4-yl)urea", "MeSH ID: D000481"], "SMILES": "N(C(N)=O)C1NC(=O)NC1=O", "physical_data": {"Molecular Weight": "158.12", "Molecular Formula": "C4H6N4O3", "Melting Point": "239 \u00b0C"}}