{"cas_no": "97-51-8", "cn_name": "5-\u785d\u57fa\u6c34\u6768\u919b", "en_name": ["5-Nitrosalicylaldehyde", "Benzaldehyde, 2-hydroxy-5-nitro-", "Salicylaldehyde, 5-nitro-", "2-Hydroxy-5-nitrobenzaldehyde", "5-Nitro-2-hydroxybenzaldehyde", "5-Nitrosalicylaldehyde", "6-Hydroxy-3-nitrobenzaldehyde", "2-Formyl-4-nitrophenol", "NSC 881", "NSC 97387", "5-Nitrosalicylaladhyde", "2-Hydroxy-5-nitrobenzaldehye"], "SMILES": "C(=O)C1=CC(N(=O)=O)=CC=C1O", "physical_data": {"Molecular Weight": "167.12", "Molecular Formula": "C7H5NO4", "Melting Point": "126 \u00b0C"}}