{"cas_no": "97-67-6", "cn_name": "L-\u82f9\u679c\u9178", "en_name": ["L-Malic acid", "Butanedioic acid, 2-hydroxy-, (2S)-", "Malic acid, L-", "Butanedioic acid, hydroxy-, (S)-", "Butanedioic acid, hydroxy-, (2S)-", "Malic acid, l-", "(2S)-2-Hydroxybutanedioic acid", "Apple acid", "(-)-Hydroxysuccinic acid", "(-)-Malic acid", "L-Malic acid", "L-(-)-Malic acid", "(S)-Malic acid", "S-(-)-Malic acid", "(-)-(S)-Malic acid", "S-2-Hydroxybutanedioic acid", "(-)-L-Malic acid", "NSC 9232", "(2S)-2-Hydroxysuccinic acid", "L-Apple acid", "(2S)-Malic acid", "(S)-2-Hydroxysuccinic acid", "(2S)-2-Hydroxysuccinic acid", "(2S)-2-Hydroxybutanedioic acid"], "SMILES": "C(CC(O)=O)(C(O)=O)O", "physical_data": {"Molecular Weight": "134.09", "Molecular Formula": "C4H6O5", "Melting Point": "128.5-129.5 \u00b0C", "Density": "1.025 g/cm\u00b3"}}