{"cas_no": "97-62-1", "cn_name": "\u5f02\u4e01\u9178\u4e59\u916f", "en_name": ["Ethyl isobutyrate", "Propanoic acid, 2-methyl-, ethyl ester", "Isobutyric acid, ethyl ester", "Ethyl isobutyrate", "Ethyl 2-methylpropanoate", "Ethyl 2-methylpropionate", "Ethyl isobutanoate", "Ethyl 2,2-dimethylacetate", "2-Methylpropanoic acid ethyl ester", "2-Methylpropionic acid ethyl ester", "NSC 97194", "Ethyl 2-methyl-1-propanoate"], "SMILES": "C(OCC)(C(C)C)=O", "physical_data": {"Molecular Weight": "116.16", "Molecular Formula": "C6H12O2", "Boiling Point": "110.1 \u00b0C", "Melting Point": "-88.2 \u00b0C", "Density": "0.84760 g/cm\u00b3 @ Temp: 40 \u00b0C"}}