{"cas_no": "97-63-2", "cn_name": "\u7532\u57fa\u4e19\u70ef\u9178\u4e59\u916f", "en_name": ["Ethyl methacrylate", "2-Propenoic acid, 2-methyl-, ethyl ester", "Methacrylic acid, ethyl ester", "Ethyl methacrylate", "Ethyl 2-methylacrylate", "Ethyl 2-methyl-2-propenoate", "Ethyl 2-methylpropenoate", "Ethyl \u03b1-methylacrylate", "Acryester E", "NSC 24152", "2-Methylacrylic acid ethyl ester", "EMA", "Light Ester E", "8845MBL"], "SMILES": "C(OCC)(C(C)=C)=O", "physical_data": {"Molecular Weight": "114.14", "Molecular Formula": "C6H10O2", "Boiling Point": "117 \u00b0C @ Press: 760 Torr", "Melting Point": "&gt;-75 \u00b0C", "Density": "0.9135 g/cm\u00b3 @ Temp: 20 \u00b0C"}}