{"cas_no": "97-65-4", "cn_name": "\u8863\u5eb7\u9178", "en_name": ["Itaconic acid", "Butanedioic acid, 2-methylene-", "Succinic acid, methylene-", "Butanedioic acid, methylene-", "2-Methylenebutanedioic acid", "Itaconic acid", "Methylenesuccinic acid", "2-Propene-1,2-dicarboxylic acid", "Propylenedicarboxylic acid", "Methylenebutanedioic acid", "2-Methylenesuccinic acid", "NSC 3357", "4-Hydroxy-2-methylene-4-oxobutanoic acid", "2-Methylidenebutanedioic acid"], "SMILES": "C(CC(O)=O)(C(O)=O)=C", "physical_data": {"Molecular Weight": "130.10", "Molecular Formula": "C5H6O4", "Boiling Point": "158-160 \u00b0C @ Press: 12 Torr", "Melting Point": "162-164 \u00b0C (decomp)", "Density": "1.632 g/cm\u00b3"}}