{"cas_no": "97-61-0", "cn_name": "2-\u7532\u57fa\u620a\u9178", "en_name": ["2-Methylvaleric acid", "Pentanoic acid, 2-methyl-", "Valeric acid, 2-methyl-", "Valeric acid, \u03b1-methyl-", "2-Methylpentanoic acid", "Methylpropylacetic acid", "\u03b1-Methylvaleric acid", "2-Methylvaleric acid", "2-Pentanecarboxylic acid", "2-Methyl-n-valeric acid", "DL-2-Methylpentanoic acid", "(\u00b1)-2-Methylpentanoic acid", "NSC 8406"], "SMILES": "C(CCC)(C(O)=O)C", "physical_data": {"Molecular Weight": "116.16", "Molecular Formula": "C6H12O2", "Boiling Point": "196.5 \u00b0C", "Density": "0.920 g/cm\u00b3 @ Temp: 25 \u00b0C"}}