{"cas_no": "97-64-3", "cn_name": "\u4e73\u9178\u4e59\u916f", "en_name": ["Ethyl lactate", "Propanoic acid, 2-hydroxy-, ethyl ester", "Lactic acid, ethyl ester", "Actylol", "Acytol", "Ethyl \u03b1-hydroxypropionate", "Ethyl lactate", "Solactol", "Ethyl 2-hydroxypropanoate", "Ethyl 2-hydroxypropionate", "Purasolv ELS", "Ethyl rac-lactate", "(\u00b1)-Ethyl lactate", "DL-Ethyl lactate", "dl-Lactic acid ethyl ester", "(\u00b1)-Lactic acid ethyl ester", "(\u00b1)-Ethyl 2-hydroxypropionate", "2-Hydroxypropanoic acid ethyl ester", "Vertec ELS", "NSC 8850", "PBR 40", "VertecBio EL", "Purasolv EL", "Galaster ELIDL 98"], "SMILES": "C(OCC)(C(C)O)=O", "physical_data": {"Molecular Weight": "118.13", "Molecular Formula": "C5H10O3", "Boiling Point": "154 \u00b0C", "Melting Point": "-25.0 \u00b0C", "Density": "1.0385 g/cm\u00b3"}}