{"cas_no": "97-69-8", "cn_name": "N-\u4e59\u9170-L-\u4e19\u6c28\u9178", "en_name": ["N-Acetyl-L-alanine", "L-Alanine, N-acetyl-", "Alanine, N-acetyl-, L-", "N-Acetyl-L-alanine", "Acetylalanine", "N-Acetyl-(S)-alanine", "N-Acetylalanine", "Acetyl-L-alanine", "L-N-Acetylalanine", "(S)-N-Acetylalanine", "(S)-(-)-N-Acetylalanine", "NSC 186892", "(2S)-2-Acetamidopropanoic acid"], "SMILES": "C(NC(C)=O)(C(O)=O)C", "physical_data": {"Molecular Weight": "131.13", "Molecular Formula": "C5H9NO3", "Boiling Point": "100-102 \u00b0C @ Press: 0.2 Torr", "Melting Point": "120-122 \u00b0C"}}