{"cas_no": "97-72-3", "cn_name": "\u5f02\u4e01\u9178\u9150", "en_name": ["Isobutyric anhydride", "Propanoic acid, 2-methyl-, 1,1\u2032-anhydride", "Isobutyric anhydride", "Propanoic acid, 2-methyl-, anhydride", "Isobutyric acid anhydride", "Isobutyryl anhydride", "2-Methylpropanoic anhydride", "Isobutanoic anhydride", "2-Methylpropionic anhydride", "2-Methylpropanoic acid anhydride", "2-Methylpropionic acid anhydride", "2-Methylpropanoyl-2-methylpropanoate"], "SMILES": "C(OC(C(C)C)=O)(C(C)C)=O", "physical_data": {"Molecular Weight": "158.20", "Molecular Formula": "C8H14O3", "Boiling Point": "181.5 \u00b0C @ Press: 734 Torr", "Melting Point": "-53.5 \u00b0C", "Density": "0.9535 g/cm\u00b3 @ Temp: 20 \u00b0C"}}