{"cas_no": "97-78-9", "cn_name": "N-\u5341\u4e8c\u70f7\u9170\u57fa\u808c\u6c28\u9178", "en_name": ["Lauroylsarcosine", "Glycine, N-methyl-N-(1-oxododecyl)-", "Sarcosine, N-lauroyl-", "N-Methyl-N-(1-oxododecyl)glycine", "Lauroylsarcosine", "N-Lauroylsarcosine", "Sarkosyl L", "N-Lauroyl-N-methylaminoacetic acid", "Sarcosyl L", "N-Laurylsarcosine", "Hamposyl L", "Maprosyl L", "N-Dodecanoylsarcosine", "Nikkol Sarcosinate LH", "Crodasinic L", "Sarcosinate LH", "N-Dodecanoyl-N-methylglycine", "N-Lauroyl-N-methylglycine", "NSC 96994", "N-Dodecanoylsarcosinate", "Lauroylsarcosinate", "Soypon SLA", "2-(N-Methyldodecanamido)acetic acid", "2-[Dodecanoyl(methyl)amino]acetic acid"], "SMILES": "C(CCCCCCCCCCC)(N(CC(O)=O)C)=O", "physical_data": {"Molecular Weight": "271.40", "Molecular Formula": "C15H29NO3", "Melting Point": "45-47 \u00b0C"}}