{"cas_no": "97-74-5", "cn_name": "\u4e00\u786b\u5316\u56db\u7532\u57fa\u79cb\u5170\u59c6", "en_name": ["Tetramethylthiuram monosulfide", "Thiodicarbonic diamide ([(H2N)C(S)]2S), N,N,N\u2032,N\u2032-tetramethyl-", "Sulfide, bis(dimethylthiocarbamoyl)", "Thiodicarbonic diamide ([(H2N)C(S)]2S), tetramethyl-", "Sulfide, bis(dimethylthiocarbamyl)", "Aceto TMTM", "Bis(dimethylthiocarbamoyl) sulfide", "Mono-Thiurad", "Monothiuram", "Tetramethylthiurammonium sulfide", "Tetramethylthiuram sulfide", "TMTMS", "Unads", "Thiuram monosulfide, tetramethyl-", "Sulfide, bis[(dimethylamino)thioxomethyl]", "Carbamodithioic acid, dimethyl-, anhydrosulfide", "N,N,N\u2032,N\u2032-Tetramethylthiuram monosulfide", "Ekagom TM", "Thiuram MM", "Tetramethylthiuram monosulfide", "Tetramethylthiuramide sulfide", "Vulkacit Thiuram MS", "Tetramethyldithiocarbamic acid anhydrosulfide", "Nocceler TS", "TMTM", "Sanceler TS", "Vulkacit MS", "N,N,N\u2032,N\u2032-Tetramethyldithiocarbamoyl monosulfide", "Soxinol TS", "TS", "NSC 3400", "NSC 4767", "Rhenocure Thiuram MS/C", "Sanceler TS-G", "Rhenogran TMTM 80", "Super Accelerator 500", "TS 80", "TS 80 (vulcanizer)", "OCIDM", "Accelerator TS", "TMTM 80", "Promoter TS"], "SMILES": "C(SC(N(C)C)=S)(N(C)C)=S", "physical_data": {"Molecular Weight": "208.37", "Molecular Formula": "C6H12N2S3", "Melting Point": "109.5 \u00b0C", "Density": "1.37 g/cm\u00b3 @ Temp: 20 \u00b0C"}}