{"cas_no": "97-77-8", "cn_name": "\u4e8c\u786b\u5316\u56db\u4e59\u57fa\u79cb\u5170\u59c6", "en_name": ["Tetraethylthiuram disulfide", "Thioperoxydicarbonic diamide ([(H2N)C(S)]2S2), N,N,N\u2032,N\u2032-tetraethyl-", "Disulfide, bis(diethylthiocarbamoyl)", "Thioperoxydicarbonic diamide ([(H2N)C(S)]2S2), tetraethyl-", "N,N,N\u2032,N\u2032-Tetraethylthioperoxydicarbonic diamide ([(H2N)C(S)]2S2)", "Abstensil", "Abstinyl", "Alcophobin", "Antabuse", "Antadix", "Antaethyl", "Antalcol", "Antietanol", "Antietil", "Antikol", "Aversan", "Bis(N,N-diethylthiocarbamoyl) disulfide", "Bis(diethylthiocarbamoyl) disulfide", "Contralin", "Cronetal", "Disulfiram", "Esperal", "Etabus", "Ethyl Thiram", "Ethyl Thiurad", "Ethyl Tuex", "Exhorran", "Noxal", "Refusal", "Stopetyl", "TETD", "Tetradine", "Tetraethylthiuram disulfide", "Tetraetil", "Thiuram E", "Thiuranide", "TTD", "Antabus", "N,N,N\u2032,N\u2032-Tetraethylthiuram disulfide", "Tetraethylthiram disulfide", "Tetraethylthiuram", "Teturam", "Ekagom TEDS", "Ekagom TETDS", "Dicupral", "Averzan", "Abstinil", "Antetan", "Antetil", "Krotenal", "Tetradin", "Espenal", "Antivitium", "TTs", "Hoca", "Tetraethylthioperoxydicarbonic diamide", "Anticol", "Nocceler TET", "Tetraethylthiuram sulfide", "Accel TET", "Ekagom DTET", "Ethyl Tuads", "Sanceler TET", "Teturamin", "Sanceler TET-G", "NSC 25953", "Soxinol TET", "Accel TET-R", "Nocceler TET-G", "Exhoran", "Akrochem TETD", "Nocceler TED", "Tetraethyldithiuram disulfide", "Etiltox", "N,N,N\u2032,N\u2032-Tetraethyldithiuram disulfide", "Curekind TETD", "Accelerator TET", "N,N-Diethyl[(diethylcarbamothioyl)disulfanyl]carbothioamide", "TETDS", "Rhenogran TETD", "TETD 80", "Curebead PB 75"], "SMILES": "N(C(SSC(N(CC)CC)=S)=S)(CC)CC", "physical_data": {"Molecular Weight": "296.54", "Molecular Formula": "C10H20N2S4", "Boiling Point": "117 \u00b0C @ Press: 17 Torr", "Melting Point": "71.5 \u00b0C", "Density": "1.30 g/cm\u00b3"}}