{"cas_no": "97-73-4", "cn_name": "\u4e73[\u9178]\u4ea4\u916f", "en_name": ["Propanoic acid, 2-hydroxy-, 1,1\u2032-anhydride", "Propanoic acid, 2-hydroxy-, 1,1\u2032-anhydride", "Lactic anhydride", "Propanoic acid, 2-hydroxy-, anhydride", "2-Hydroxypropanoic anhydride", "Lactic acid anhydride", "2-Hydroxypropanoyl 2-hydroxypropanoate"], "SMILES": "C(OC(C(C)O)=O)(C(C)O)=O", "physical_data": {"Molecular Weight": "162.14", "Molecular Formula": "C6H10O5", "Boiling Point": "125-128 \u00b0C @ Press: 33 Torr"}}