{"cas_no": "97-86-9", "cn_name": "\u7532\u57fa\u4e19\u70ef\u9178\u5f02\u4e01\u916f", "en_name": ["Isobutyl methacrylate", "2-Propenoic acid, 2-methyl-, 2-methylpropyl ester", "Methacrylic acid, isobutyl ester", "Isobutyl methacrylate", "Isobutyl \u03b1-methylacrylate", "2-Methylpropyl methacrylate", "Isobutyl 2-methyl-2-propenoate", "NSC 18607", "I 205 (methacrylate)", "I 205", "Light Ester IB", "Plexigum Q 611", "Acryester IB", "Blemmer IBMA", "Visiomer i-BMA", "2-Methyl-acrylic acid isobutyl ester", "2-Methylpropyl 2-methylprop-2-enoate"], "SMILES": "C(OCC(C)C)(C(C)=C)=O", "physical_data": {"Molecular Weight": "142.20", "Molecular Formula": "C8H14O2", "Boiling Point": "155 \u00b0C @ Press: 760 Torr", "Density": "0.8858 g/cm\u00b3 @ Temp: 20 \u00b0C"}}