{"cas_no": "97-85-8", "cn_name": "\u5f02\u4e01\u9178\u5f02\u4e01\u916f", "en_name": ["Isobutyl isobutyrate", "Propanoic acid, 2-methyl-, 2-methylpropyl ester", "Isobutyric acid, isobutyl ester", "Isobutyl isobutyrate", "2-Methylpropyl isobutyrate", "2-Methylpropyl 2-methylpropanoate", "2-Methylpropyl 2-methylpropionate", "2-Methylpropionic acid isobutyl ester", "Isobutyl isobutanoate", "NSC 6538"], "SMILES": "C(OCC(C)C)(C(C)C)=O", "physical_data": {"Molecular Weight": "144.21", "Molecular Formula": "C8H16O2", "Boiling Point": "148.6 \u00b0C", "Melting Point": "-80.66 \u00b0C", "Density": "0.8750 g/cm\u00b3 @ Temp: 0 \u00b0C"}}