{"cas_no": "97-89-2", "cn_name": "(2-\u7532\u57fa)3,7-\u4e8c\u7532\u57fa-6-\u8f9b\u70ef\u4e19\u9178\u916f", "en_name": ["Citronellyl isobutyrate", "Propanoic acid, 2-methyl-, 3,7-dimethyl-6-octen-1-yl ester", "Isobutyric acid, 3,7-dimethyl-6-octenyl ester", "Propanoic acid, 2-methyl-, 3,7-dimethyl-6-octenyl ester", "Isobutyric acid, ester with citronellol", "Citronellyl isobutyrate", "2,6-Dimethyl-2-octen-8-yl isobutyrate", "NSC 46148", "3,7-Dimethyloct-6-en-1-yl isobutyrate"], "SMILES": "C(OCCC(CCC=C(C)C)C)(C(C)C)=O", "physical_data": {"Molecular Weight": "226.35", "Molecular Formula": "C14H26O2", "Boiling Point": "175-180 \u00b0C @ Press: 15 Torr"}}