{"cas_no": "97-87-0", "cn_name": "\u5f02\u4e01\u9178\u4e01\u916f", "en_name": ["Butyl isobutyrate", "Propanoic acid, 2-methyl-, butyl ester", "Isobutyric acid, butyl ester", "Butyl isobutyrate", "n-Butyl isobutyrate", "1-Butyl 2-methylpropionate", "1-Butyl isobutyrate", "Butyl isobutanoate", "Butyl 2-methylpropanoate", "Butyl 2-methylpropionate", "Butyl 2-methyl-1-propanoate"], "SMILES": "C(OCCCC)(C(C)C)=O", "physical_data": {"Molecular Weight": "144.21", "Molecular Formula": "C8H16O2", "Boiling Point": "154-155 \u00b0C", "Density": "0.8721 g/cm\u00b3 @ Temp: 20 \u00b0C"}}