{"cas_no": "97-84-7", "cn_name": "N,N,N',N'-\u56db\u7532\u57fa-1,3-\u4e8c\u6c28\u57fa\u4e01\u70f7", "en_name": ["N1,N1,N3,N3-Tetramethyl-1,3-butanediamine", "1,3-Butanediamine, N1,N1,N3,N3-tetramethyl-", "1,3-Butanediamine, N,N,N\u2032,N\u2032-tetramethyl-", "N1,N1,N3,N3-Tetramethyl-1,3-butanediamine", "N,N,N\u2032,N\u2032-Tetramethyl-1,3-butanediamine", "N,N,N\u2032,N\u2032-Tetramethyl-1,3-diaminobutane", "1,3-Bis(dimethylamino)butane", "N,N,N\u2032,N\u2032\u2032-Tetramethylbutane-1,3-diamine", "Tetramethylbutane-1,3-diamine", "N,N,N1,N1-Tetramethyl-1,3-diaminobutane", "NSC 35411", "1-N,1-N,3-N,3-N-Tetramethylbutane-1,3-diamine"], "SMILES": "C(CCN(C)C)(N(C)C)C", "physical_data": {"Molecular Weight": "144.26", "Molecular Formula": "C8H20N2", "Boiling Point": "165 \u00b0C @ Press: 760 Torr", "Melting Point": "126-127 \u00b0C", "Density": "0.802 g/cm\u00b3"}}