{"cas_no": "97-88-1", "cn_name": "\u7532\u57fa\u4e19\u70ef\u9178\u4e01\u916f", "en_name": ["Butyl methacrylate", "2-Propenoic acid, 2-methyl-, butyl ester", "Methacrylic acid, butyl ester", "Butyl methacrylate", "n-Butyl methacrylate", "Butyl 2-methyl-2-propenoate", "Acryester B", "Blemmer BMA", "Butyl 2-methylacrylate", "NSC 20956", "2-Methyl-2-propenoic acid butyl ester", "N 212", "Light Ester NB", "Acryester BMA", "Visiomer n-BMA", "2-Methyl-acrylic acid butyl ester"], "SMILES": "C(OCCCC)(C(C)=C)=O", "physical_data": {"Molecular Weight": "142.20", "Molecular Formula": "C8H14O2", "Boiling Point": "160 \u00b0C @ Press: 760 Torr", "Melting Point": "-25 \u00b0C", "Density": "0.8936 g/cm\u00b3 @ Temp: 20 \u00b0C"}}