{"cas_no": "97-99-4", "cn_name": "\u56db\u6c22\u7ce0\u9187", "en_name": ["Tetrahydrofurfuryl alcohol", "2-Furanmethanol, tetrahydro-", "Furfuryl alcohol, tetrahydro-", "Tetrahydro-2-furanmethanol", "QO THFA", "Tetrahydro-2-furancarbinol", "Tetrahydrofurfuryl alcohol", "Tetrahydro-2-furylmethanol", "THFA", "2-(Hydroxymethyl)tetrahydrofuran", "Tetrahydro-2-furanylmethanol", "Rac-(Tetrahydrofuran-2-yl)methanol", "NSC 15434", "(Tetrahydrofuran-2-yl)methanol", "(\u00b1)-Tetrahydrofurfuryl alcohol", "(Oxolan-2-yl)methanol", "Tetrahydrofurfurol"], "SMILES": "C(O)C1CCCO1", "physical_data": {"Molecular Weight": "102.13", "Molecular Formula": "C5H10O2", "Boiling Point": "178 \u00b0C @ Press: 760 Torr", "Melting Point": "&lt;-80 \u00b0C", "Density": "1.0544 g/cm\u00b3 @ Temp: 20 \u00b0C"}}