{"cas_no": "97-97-2", "cn_name": "2-\u6c2f\u4e59\u919b\u7f29\u4e8c\u7532\u9187", "en_name": ["Chloroacetaldehyde dimethyl acetal", "Ethane, 2-chloro-1,1-dimethoxy-", "Acetaldehyde, chloro-, dimethyl acetal", "2-Chloro-1,1-dimethoxyethane", "Chloroacetaldehyde dimethyl acetal", "2-Chloroacetaldehyde dimethyl acetal", "1-Chloro-2,2-dimethoxyethane", "1,1-Dimethoxy-2-chloroethane", "NSC 60388", "2,2-Dimethoxyethyl chloride"], "SMILES": "C(CCl)(OC)OC", "physical_data": {"Molecular Weight": "124.57", "Molecular Formula": "C4H9ClO2", "Boiling Point": "127.5 \u00b0C", "Density": "1.0980 g/cm\u00b3 @ Temp: 20 \u00b0C"}}