{"cas_no": "97-94-9", "cn_name": "\u4e09\u4e59\u57fa\u787c", "en_name": ["Triethylborane", "Borane, triethyl-", "Triethylborane", "Triethylboron"], "SMILES": "B(CC)(CC)CC", "physical_data": {"Molecular Weight": "97.99", "Molecular Formula": "C6H15B", "Boiling Point": "95-96 \u00b0C", "Melting Point": "-92.9 \u00b0C", "Density": "0.697 g/cm\u00b3 @ Temp: 20 \u00b0C"}}