{"cas_no": "97-90-5", "cn_name": "\u4e59\u4e8c\u9187\u4e8c\u7532\u57fa\u4e19\u70ef\u9178\u916f", "en_name": ["Ethylene glycol dimethacrylate", "2-Propenoic acid, 2-methyl-, 1,1\u2032-(1,2-ethanediyl) ester", "Methacrylic acid, ethylene ester", "2-Propenoic acid, 2-methyl-, 1,2-ethanediyl ester", "Diglycol dimethacrylate", "Ethylene dimethacrylate", "Ethylene glycol bis(methacrylate)", "Sartomer SR 206", "SR 206", "1,2-Bis(methacryloyloxy)ethane", "Ethylene methacrylate", "Ethanediol dimethacrylate", "DMM 2", "1,2-Ethanediol dimethacrylate", "TGM 1 (ester)", "TGM 1", "NK Ester 1G", "Ethylene glycol dimethacrylate", "Acryester ED", "EGDMA", "Light Ester EG", "Perkalink 401", "Perkalink 7401", "Acryester EDMA", "San Ester EG", "Blemmer PDE 50", "NSC 24166", "Hi-Cross ED", "Hi-Cross ED-P", "Perkalink 401-50D-pd", "EG 50", "Luvomaxx EDMA-DL 75", "Fancryl FA 121M", "FA 121M", "EM 320", "SR 206NS", "1 G", "Miramer M 221", "2-Methacryloyloxyethyl methacrylate", "2-[(2-Methylprop-2-enoyl)oxy]ethyl 2-methylprop-2-enoate", "2-(2-Methylprop-2-enoyloxy)ethyl 2-methylprop-2-enoate", "Light Ester EG 50"], "SMILES": "C(OCCOC(C(C)=C)=O)(C(C)=C)=O", "physical_data": {"Molecular Weight": "198.22", "Molecular Formula": "C10H14O4", "Boiling Point": "260 \u00b0C", "Melting Point": "-40 \u00b0C", "Density": "1.055 g/cm\u00b3 @ Temp: 20 \u00b0C"}}