{"cas_no": "97-95-0", "cn_name": "2-\u4e59\u57fa-1-\u4e01\u9187", "en_name": ["2-Ethyl-1-butanol", "1-Butanol, 2-ethyl-", "2-Ethyl-1-butanol", "2-Ethylbutyl alcohol", "3-Methylolpentane", "Pseudohexyl alcohol", "NSC 8858"], "SMILES": "C(CC)(CC)CO", "physical_data": {"Molecular Weight": "102.17", "Molecular Formula": "C6H14O", "Boiling Point": "146.27 \u00b0C @ Press: 760 Torr", "Melting Point": "&lt;-15 \u00b0C", "Density": "0.8326 g/cm\u00b3 @ Temp: 20 \u00b0C"}}