{"cas_no": "97-93-8", "cn_name": "\u4e09\u4e59\u57fa\u94dd", "en_name": ["Triethylaluminum", "Aluminum, triethyl-", "Triethylaluminum", "Triethylaluminium", "Triethylalane", "TEAL", "TEAL 2"], "SMILES": "[Al](CC)(CC)CC", "physical_data": {"Molecular Weight": "", "Molecular Formula": "C6H15Al", "Boiling Point": "194 \u00b0C", "Melting Point": "-52.5 \u00b0C", "Density": "0.832 g/cm\u00b3 @ Temp: 25 \u00b0C"}}