{"cas_no": "97-96-1", "cn_name": "2-\u4e59\u57fa\u4e01\u919b", "en_name": ["2-Ethylbutanal", "Butanal, 2-ethyl-", "Butyraldehyde, 2-ethyl-", "Butyraldehyde, \u03b1-ethyl-", "2-Ethylbutanal", "Diethylacetaldehyde", "\u03b1-Ethylbutyraldehyde", "2-Ethylbutyraldehyde", "2-Ethylbutyric aldehyde", "3-Formylpentane", "\u03b1-Ethylbutanal", "NSC 6757"], "SMILES": "C(CC)(CC)C=O", "physical_data": {"Molecular Weight": "100.16", "Molecular Formula": "C6H12O", "Boiling Point": "117-119 \u00b0C"}}