{"cas_no": "970-73-0", "cn_name": "\u53f3\u65cb\u6ca1\u98df\u5b50\u513f\u8336\u7d20", "en_name": ["Gallocatechin", "2H-1-Benzopyran-3,5,7-triol, 3,4-dihydro-2-(3,4,5-trihydroxyphenyl)-, (2R,3S)-", "Gallocatechol", "2H-1-Benzopyran-3,5,7-triol, 3,4-dihydro-2-(3,4,5-trihydroxyphenyl)-, (2R-trans)-", "Gallocatechol, d-", "(2R,3S)-3,4-Dihydro-2-(3,4,5-trihydroxyphenyl)-2H-1-benzopyran-3,5,7-triol", "(+)-Gallocatechin", "(+)-Gallocatechol", "d-Gallocatechin", "Gallocatechin", "NSC 674038", "(2R,3S)-(+)-Gallocatechin", "Sunphenon EGC-OP"], "SMILES": "OC1C(OC=2C(C1)=C(O)C=C(O)C2)C3=CC(O)=C(O)C(O)=C3", "physical_data": {"Molecular Weight": "306.27", "Molecular Formula": "C15H14O7", "Melting Point": "185-190 \u00b0C"}}