{"cas_no": "970-74-1", "cn_name": "(-)-\u8868\u6ca1\u98df\u5b50\u513f\u8336\u7d20", "en_name": ["Epigallocatechin", "2H-1-Benzopyran-3,5,7-triol, 3,4-dihydro-2-(3,4,5-trihydroxyphenyl)-, (2R,3R)-", "2H-1-Benzopyran-3,5,7-triol, 3,4-dihydro-2-(3,4,5-trihydroxyphenyl)-, (2R-cis)-", "Epigallocatechol", "Gallocatechol, l-", "(2R,3R)-3,4-Dihydro-2-(3,4,5-trihydroxyphenyl)-2H-1-benzopyran-3,5,7-triol", "(-)-Epigallocatechin", "(-)-Epigallocatechol", "(-)-3,3\u2032,4\u2032,5,5\u2032,7-Flavanhexol", "l-Epigallocatechin", "l-Epigallocatechol", "Epigallocatechin", "3,3\u2032,4\u2032,5,5\u2032,7-Flavanhexol", "Factor C2 (antiscurvy)", "Antiscurvy factor C2", "1-epi-3\u2032,4\u2032,5\u2032,5,7-Pentahydroxy-3-flavanol", "(-)-epi-Gallocatechin", "L-Epigallocatechin", "epi-Gallocatechin", "NSC 674039", "EGC", "Sunphenon EGC", "Galloepicatechin", "(2R,3R)-2-(3,4,5-Trihydroxyphenyl)-3,5,7-trihydroxychroman"], "SMILES": "OC1C(OC=2C(C1)=C(O)C=C(O)C2)C3=CC(O)=C(O)C(O)=C3", "physical_data": {"Molecular Weight": "306.27", "Molecular Formula": "C15H14O7", "Melting Point": "218 \u00b0C"}}