{"cas_no": "97004-04-1", "cn_name": "5-\u6c28\u57fa\u7532\u57fa-2-\u6c2f\u5421\u5576", "en_name": ["6-Chloro-3-pyridinemethanamine", "3-Pyridinemethanamine, 6-chloro-", "6-Chloro-3-pyridinemethanamine", "5-(Aminomethyl)-2-chloropyridine", "2-Chloro-5-(aminomethyl)pyridine", "(6-Chloro-3-pyridyl)methylamine", "(2-Chloro-5-pyridyl)methylamine", "6-Chloro-3-(aminomethyl)pyridine", "((6-Chloropyridin-3-yl)methyl)amine", "[(2-Chloropyridin-5-yl)methyl]amine", "3-Aminomethyl-6-chloropyridine", "(6-Chloropyridin-3-yl)methanamine", "1-(6-Chloropyridin-3-yl)methanamine"], "SMILES": "C(N)C=1C=CC(Cl)=NC1", "physical_data": {"Molecular Weight": "142.59", "Molecular Formula": "C6H7ClN2", "Boiling Point": "112-114 \u00b0C @ Press: 2-3 Torr"}}