{"cas_no": "97041-37-7", "cn_name": "4-\u6c2f-2-\u7532\u6c27\u57fa-6-\u7532\u57fa\u5627\u5576", "en_name": ["4-Chloro-2-methoxy-6-methylpyrimidine", "Pyrimidine, 4-chloro-2-methoxy-6-methyl-", "4-Chloro-2-methoxy-6-methylpyrimidine"], "SMILES": "O(C)C=1N=C(C)C=C(Cl)N1", "physical_data": {"Molecular Weight": "158.59", "Molecular Formula": "C6H7ClN2O", "Melting Point": "71-73 \u00b0C"}}