{"cas_no": "97096-13-4", "cn_name": "2-\u6c28\u57fa-3,5-\u4e8c\u6eb4\u82ef\u7532\u9170\u80bc", "en_name": ["Benzoic acid, 2-amino-3,5-dibromo-, hydrazide", "Benzoic acid, 2-amino-3,5-dibromo-, hydrazide", "2-Amino-3,5-dibromobenzoic acid hydrazide", "2-Amino-3,5-dibromobenzene-1-carbohydrazide", "2-Amino-3,5-dibromobenzohydrazide"], "SMILES": "C(NN)(=O)C1=C(N)C(Br)=CC(Br)=C1", "physical_data": {"Molecular Weight": "308.96", "Molecular Formula": "C7H7Br2N3O", "Melting Point": "190-192 \u00b0C"}}