{"cas_no": "971-15-3", "cn_name": "1,1\u2019-(\u5df1\u786b\u4ee3\u8054\u78b3\u786b\u57fa)\u53cc\u54cc\u5576", "en_name": ["Bis(1-piperidinylthioxomethyl) hexasulfide", "Hexasulfide, bis(1-piperidinylthioxomethyl)", "Hexasulfide, bis(piperidinothiocarbonyl)", "Piperidine, 1,1\u2032-(hexathiodicarbonothioyl)bis-", "Bis(1-piperidinylthioxomethyl) hexasulfide", "Dipentamethylenethiuram hexasulfide", "Robac P 25", "Bis(pentamethylene thiuram) hexasulfide", "Bostex 224"], "SMILES": "C(SSSSSSC(=S)N1CCCCC1)(=S)N2CCCCC2", "physical_data": {"Molecular Weight": "448.82", "Molecular Formula": "C12H20N2S8", "Melting Point": "135-136 \u00b0C"}}