{"cas_no": "972-46-3", "cn_name": "3-\u4e59\u6c27\u57fa-\u96c4\u753e-3,5-\u4e8c\u70ef-17-\u916e", "en_name": ["3-Ethoxyandrosta-3,5-dien-17-one", "Androsta-3,5-dien-17-one, 3-ethoxy-", "3-Ethoxyandrosta-3,5-dien-17-one", "Androst-4-ene-3,17-dione 3-ethyl enol ether"], "SMILES": "CC12C3C(C4C(C)(CC3)C(=O)CC4)CC=C1C=C(OCC)CC2", "physical_data": {"Molecular Weight": "314.46", "Molecular Formula": "C21H30O2", "Melting Point": "149-151.6 \u00b0C"}}