{"cas_no": "972-02-1", "cn_name": "\u5730\u82ac\u5c3c\u591a", "en_name": ["Diphenidol", "1-Piperidinebutanol, \u03b1,\u03b1-diphenyl-", "\u03b1,\u03b1-Diphenyl-1-piperidinebutanol", "SKF 478", "Difenidol", "Diphenidol", "Nometic", "Benzhydrol, \u03b1-(3-piperidinopropyl)-", "Diphenadol", "1,1-Diphenyl-4-piperidino-1-butanol", "Diphenyl[3-(1-piperidyl)propyl]carbinol", "Cephadol", "Avomol", "Lansenol"], "SMILES": "C(CCCN1CCCCC1)(O)(C2=CC=CC=C2)C3=CC=CC=C3", "physical_data": {"Molecular Weight": "309.45", "Molecular Formula": "C21H27NO", "Boiling Point": "153-157 \u00b0C @ Press: 0.2 Torr", "Melting Point": "104-105 \u00b0C"}}