{"cas_no": "97229-11-3", "cn_name": "4-\u6c2f-2-\u7532\u78fa\u9170\u57fa\u5627\u5576", "en_name": ["4-Chloro-2-(methylsulfonyl)pyrimidine", "Pyrimidine, 4-chloro-2-(methylsulfonyl)-", "4-Chloro-2-(methylsulfonyl)pyrimidine"], "SMILES": "S(C)(=O)(=O)C=1N=C(Cl)C=CN1", "physical_data": {"Molecular Weight": "192.62", "Molecular Formula": "C5H5ClN2O2S", "Melting Point": "88-89 \u00b0C"}}