{"cas_no": "97240-79-4", "cn_name": "\u6258\u5421\u916f", "en_name": ["Topiramate", "\u03b2-D-Fructopyranose, 2,3:4,5-bis-O-(1-methylethylidene)-, 1-sulfamate", "\u03b2-D-Fructopyranose, 2,3:4,5-bis-O-(1-methylethylidene)-, sulfamate", "5H-Bis[1,3]dioxolo[4,5-b:4\u2032,5\u2032-d]pyran, \u03b2-D-fructopyranose deriv.", "Topiramate", "McN 4853", "RWJ 17021", "2,3:4,5-Bis-O-(1-methylethylidene) \u03b2-D-fructopyranose sulfamate", "Topomax", "Topamax", "Epitomax", "Topimax", "Topamac", "TPM", "Epitoma", "Topina", "Sincronil", "Qudexy XR", "Trokendi XR", "Topiragen", "MeSH ID: C052342"], "SMILES": "C(OS(N)(=O)=O)C12C(C3C(CO1)OC(C)(C)O3)OC(C)(C)O2", "physical_data": {"Molecular Weight": "339.36", "Molecular Formula": "C12H21NO8S", "Melting Point": "125-126 \u00b0C"}}