{"cas_no": "97267-61-3", "cn_name": "3-\u6eb4-8-\u6c2f-1,5-\u4e8c\u6c2e\u6742\u8418", "en_name": ["3-Bromo-8-chloro-1,5-naphthyridine", "1,5-Naphthyridine, 3-bromo-8-chloro-", "3-Bromo-8-chloro-1,5-naphthyridine", "7-Bromo-4-chloro-1,5-naphthyridine"], "SMILES": "ClC=1C2=C(C=C(Br)C=N2)N=CC1", "physical_data": {"Molecular Weight": "243.49", "Molecular Formula": "C8H4BrClN2", "Melting Point": "163-165 \u00b0C"}}