{"cas_no": "973-21-7", "cn_name": "2-\u4ef2\u4e01\u57fa-4\uff0c6-\u4e8c\u785d\u57fa\u82ef\u57fa\u5f02\u4e19\u57fa\u78b3\u9178\u916f", "en_name": ["2-sec-Butyl-4,6-dinitrophenyl isopropyl carbonate", "Carbonic acid, 1-methylethyl 2-(1-methylpropyl)-4,6-dinitrophenyl ester", "Carbonic acid, 2-sec-butyl-4,6-dinitrophenyl isopropyl ester", "2,4-Dinitro-6-sec-butylphenyl-isopropylcarbonate", "Dinobuton", "Isopropyl 2,4-dinitro-6-sec-butylphenyl carbonate", "UC 19786", "Union Carbide 19786", "Dessin", "Kasebon", "2,4-Dinitro-6-sec-butylphenyl-O-isopropyl carbonate", "Acrex", "MC 1053", "2-sec-Butyl-4,6-dinitrophenyl isopropyl carbonate", "Drawinol", "Isophen", "Isophen (pesticide)", "Akrex"], "SMILES": "O(C(OC(C)C)=O)C1=C(C(CC)C)C=C(N(=O)=O)C=C1N(=O)=O", "physical_data": {"Molecular Weight": "326.30", "Molecular Formula": "C14H18N2O7", "Melting Point": "56-57 \u00b0C"}}