{"cas_no": "973-67-1", "cn_name": "\u9ec4\u5c91\u7d20-5,6,7-\u4e09\u7532\u919a", "en_name": ["5,6,7-Trimethoxy-2-phenyl-4H-1-benzopyran-4-one", "4H-1-Benzopyran-4-one, 5,6,7-trimethoxy-2-phenyl-", "Flavone, 5,6,7-trimethoxy-", "5,6,7-Trimethoxy-2-phenyl-4H-1-benzopyran-4-one", "5,6,7-Trimethoxyflavone", "Baicalein trimethyl ether", "5,6,7-Trimethylbaicalein"], "SMILES": "O(C)C1=C2C(OC(=CC2=O)C3=CC=CC=C3)=CC(OC)=C1OC", "physical_data": {"Molecular Weight": "312.32", "Molecular Formula": "C18H16O5", "Melting Point": "165-166 \u00b0C"}}