{"cas_no": "97322-87-7", "cn_name": "\u66f2\u683c\u5217\u916e", "en_name": ["Troglitazone", "2,4-Thiazolidinedione, 5-[[4-[(3,4-dihydro-6-hydroxy-2,5,7,8-tetramethyl-2H-1-benzopyran-2-yl)methoxy]phenyl]methyl]-", "5-[[4-[(3,4-Dihydro-6-hydroxy-2,5,7,8-tetramethyl-2H-1-benzopyran-2-yl)methoxy]phenyl]methyl]-2,4-thiazolidinedione", "CS 045", "Troglitazone", "Romglizone", "GR 92132X", "CI 991", "Rezulin", "Noscal", "Depotox"], "SMILES": "CC1=C2C(CCC(COC3=CC=C(CC4C(=O)NC(=O)S4)C=C3)(C)O2)=C(C)C(O)=C1C", "physical_data": {"Molecular Weight": "441.54", "Molecular Formula": "C24H27NO5S", "Melting Point": "184-186 \u00b0C"}}