{"cas_no": "97398-80-6", "cn_name": "\u53cd,\u53cd-4-\u7532\u6c27\u57fa-4'-\u6b63\u4e19\u57fa-1,1'-\u8054\u4e8c\u73af\u5df1\u70f7", "en_name": ["(trans,trans)-4-Methoxy-4\u2032-propyl-1,1\u2032-bicyclohexyl", "1,1\u2032-Bicyclohexyl, 4-methoxy-4\u2032-propyl-, (trans,trans)-", "(trans,trans)-4-Methoxy-4\u2032-propyl-1,1\u2032-bicyclohexyl", "trans,trans-4-Methoxy-4\u2032-propylcyclohexylcyclohexane", "3O1CCH", "CCH 3O1", "3-HH-O1", "CCH-301", "CC-3-O1"], "SMILES": "C(CC)C1CCC(CC1)C2CCC(OC)CC2", "physical_data": {"Molecular Weight": "238.41", "Molecular Formula": "C16H30O", "Melting Point": "10 \u00b0C"}}