{"cas_no": "974-23-2", "cn_name": "16,17-\u73af\u6c27\u5b55\u70ef\u9187\u916e", "en_name": ["16\u03b1,17\u03b1-Epoxypregnenolone", "Pregn-5-en-20-one, 16,17-epoxy-3-hydroxy-, (3\u03b2,16\u03b1)-", "Pregn-5-en-20-one, 16\u03b1,17-epoxy-3\u03b2-hydroxy-", "16,17-Epoxy-17H-cyclopenta[a]phenanthrene, pregn-5-en-20-one deriv.", "(3\u03b2,16\u03b1)-16,17-Epoxy-3-hydroxypregn-5-en-20-one", "16\u03b1,17\u03b1-Oxidopregnenolone", "16\u03b1,17\u03b1-Epoxypregnenolone", "3\u03b2-Hydroxy-16\u03b1,17\u03b1-epoxy-5-pregnen-20-one", "16\u03b1,17-Epoxy-3\u03b2-hydroxypregn-5-en-20-one", "16\u03b1,17\u03b1-Epoxy-3\u03b2-hydroxy-5-pregnen-20-one", "5-Pregnen-16\u03b1,17\u03b1-epoxy-3\u03b2-ol-20-one", "NSC 122401", "16,17\u03b1-Epoxypregnenolone", "16\u03b1,17\u03b1-Epoxypregn-5-en-3\u03b2-ol-20-one", "16a,17-Epoxy-3b-hydroxypregn-5-en-20-one"], "SMILES": "C(C)(=O)C12C3(C)C(CC1O2)C4C(CC3)C5(C)C(=CC4)CC(O)CC5", "physical_data": {"Molecular Weight": "330.46", "Molecular Formula": "C21H30O3", "Melting Point": "185-188 \u00b0C"}}