{"cas_no": "976-71-6", "cn_name": "\u574e\u5229\u916e", "en_name": ["Canrenone", "Pregna-4,6-diene-21-carboxylic acid, 17-hydroxy-3-oxo-, \u03b3-lactone, (17\u03b1)-", "17\u03b1-Pregna-4,6-diene-21-carboxylic acid, 17-hydroxy-3-oxo-, \u03b3-lactone", "Spiro[17H-cyclopenta[a]phenanthrene-17,2\u2032(5\u2032H)-furan], pregna-4,6-diene-21-carboxylic acid deriv.", "Canrenone", "17\u03b1-(2-Carboxyethyl)-17\u03b2-hydroxyandrosta-4,6-dien-3-one lactone", "17-Hydroxy-3-oxo-17\u03b1-pregna-4,6-diene-21-carboxylic acid \u03b3-lactone", "3-(17\u03b2-Hydroxy-3-oxoandrosta-4,6-dien-17\u03b1-yl)propionic acid \u03b3-lactone", "Phanurane", "Aldadiene", "SC 9376", "3\u2032-(3-Oxo-17\u03b2-hydroxyandrosta-4,6-dien-17\u03b1-yl)-propionic acid lactone", "Spirolactone SC 14266", "3-(17\u03b2-Hydroxy-3-oxoandrosta-4,6-dien-17\u03b1-yl)propionic acid lactone", "17-Hydroxy-3-oxo-17\u03b1-pregna-4,6-diene-21-carboxylic acid lactone", "3-(3-Oxo-17\u03b2-hydroxy-4,6-androstadien-17\u03b1-yl)propionic acid \u03b3-lactone", "11614 R.P.", "20-Spiroxa-4,6-diene-3,21-dione", "17\u03b2-Hydroxy-3-oxopregna-4,6-diene-21-carboxylic acid", "NSC 261713"], "SMILES": "CC12C3(CCC1C4C(CC2)C5(C)C(C=C4)=CC(=O)CC5)OC(=O)CC3", "physical_data": {"Molecular Weight": "340.46", "Molecular Formula": "C22H28O3", "Melting Point": "150 \u00b0C"}}