{"cas_no": "976-56-7", "cn_name": "\u6297\u6c27\u5242 1222", "en_name": ["Diethyl P-[[3,5-bis(1,1-dimethylethyl)-4-hydroxyphenyl]methyl]phosphonate", "Phosphonic acid, P-[[3,5-bis(1,1-dimethylethyl)-4-hydroxyphenyl]methyl]-, diethyl ester", "Phosphonic acid, (3,5-di-tert-butyl-4-hydroxybenzyl)-, diethyl ester", "Phosphonic acid, [[3,5-bis(1,1-dimethylethyl)-4-hydroxyphenyl]methyl]-, diethyl ester", "Diethyl P-[[3,5-bis(1,1-dimethylethyl)-4-hydroxyphenyl]methyl]phosphonate", "Diethyl (3,5-di-tert-butyl-4-hydroxybenzyl)phosphonate", "Irganox 1222", "NSC 635180", "Diethyl (3,5-di-tert-butyl-4-hydroxyphenyl)methanephosphonate", "Irgamod 295", "Diethyl [[3,5-bis(1,1-dimethylethyl)-4-hydroxyphenyl]methyl]phosphonate", "Heat Stabilizer 3114", "Antioxidant 1222", "(3,5-Di-tert-butyl-4-hydroxy-benzyl)-phosphonic acid diethyl ester", "P-[3,5-Bis(1,1-dimethylethyl)-4-hydroxyphenyl]methylphosphonic acid diethyl ester", "Antioxidant 122"], "SMILES": "C(P(OCC)(OCC)=O)C1=CC(C(C)(C)C)=C(O)C(C(C)(C)C)=C1", "physical_data": {"Molecular Weight": "356.44", "Molecular Formula": "C19H33O4P", "Melting Point": "112-114 \u00b0C"}}