{"cas_no": "97600-39-0", "cn_name": "4-\u53d4\u4e01\u57fa\u676f[4]\u82b3\u70c3-\u56db\u4e59\u9178\u4e59\u916f", "en_name": ["Sodium ionophore X", "Acetic acid, 2,2\u2032,2\u2032\u2032,2\u2032\u2032\u2032-[[5,11,17,23-tetrakis(1,1-dimethylethyl)pentacyclo[19.3.1.13,7.19,13.115,19]octacosa-1(25),3,5,7(28),9,11,13(27),15,17,19(26),21,23-dodecaene-25,26,27,28-tetrayl]tetrakis(oxy)]tetrakis-, tetraethyl ester", "Pentacyclo[19.3.1.13,7.19,13.115,19]octacosane, acetic acid deriv.", "4-tert-Butyl calix[4]arene-O,O\u2032,O\u2032\u2032,O\u2032\u2032\u2032-tetraacetic acid tetraethyl ester", "5,11,17,23-Tetra-tert-butyl-25,26,27,28-tetrakis(2-ethoxy-2-oxoethoxy)calix[4]arene", "4-tert-Butylcalix[4]arenetetra-O-acetic acid tetraethyl ester", "Sodium ionophore X", "tert-Butyl calix[4]arenetetraacetic acid tetraethyl ester", "CALX-B 4EA", "Tetrakis[(4-tert-butyl-2-methylenephenoxy)ethyl acetate]", "4-tert-Butylcalix[4]arenetetraacetic acid tetraethyl ester"], "SMILES": "O(CC(OCC)=O)C=1C=2CC=3C(OCC(OCC)=O)=C(CC=4C(OCC(OCC)=O)=C(CC5=C(OCC(OCC)=O)C(CC1C=C(C(C)(C)C)C2)=CC(C(C)(C)C)=C5)C=C(C(C)(C)C)C4)C=C(C(C)(C)C)C3", "physical_data": {"Molecular Weight": "993.27", "Molecular Formula": "C60H80O12", "Melting Point": "154-155 \u00b0C"}}