{"cas_no": "97614-44-3", "cn_name": "2-\u8131\u6c27-2-\u6c1f-ALPHA-D-\u963f\u62c9\u4f2f\u544b\u5583\u7cd6\u57fa\u6eb4\u5316\u7269 3,5-\u4e8c\u82ef\u7532\u9178\u916f", "en_name": ["\u03b1-D-Arabinofuranosyl bromide, 2-deoxy-2-fluoro-, 3,5-dibenzoate", "\u03b1-D-Arabinofuranosyl bromide, 2-deoxy-2-fluoro-, 3,5-dibenzoate", "\u03b1-D-Arabinofuranosyl bromide, 2-deoxy-2-fluoro-, dibenzoate", "2-Deoxy-1-\u03b1-bromo-2-\u03b2-fluoro-3,5-di-O-benzoyl-D-ribofuranose"], "SMILES": "O(C(=O)C1=CC=CC=C1)C2C(COC(=O)C3=CC=CC=C3)OC(Br)C2F", "physical_data": {"Molecular Weight": "423.23", "Molecular Formula": "C19H16BrFO5", "Melting Point": "73 \u00b0C"}}