{"cas_no": "97614-43-2", "cn_name": "2-\u8131\u6c27-2-\u6c1f-1,3,5-\u4e09\u82ef\u7532\u9170\u57fa-alpha-D-\u963f\u62c9\u4f2f\u544b\u5583\u7cd6", "en_name": ["\u03b1-D-Arabinofuranose, 2-deoxy-2-fluoro-, 1,3,5-tribenzoate", "\u03b1-D-Arabinofuranose, 2-deoxy-2-fluoro-, 1,3,5-tribenzoate", "\u03b1-D-Arabinofuranose, 2-deoxy-2-fluoro-, tribenzoate", "2\u2032-Fluoro-2\u2032-deoxy-1,3,5-tri-O-benzoyl-\u03b1-D-arabinofuranose", "2-Deoxy-2-fluoro-\u03b1-D-arabinofuranose 1,3,5-tribenzoate"], "SMILES": "O(C(=O)C1=CC=CC=C1)C2C(COC(=O)C3=CC=CC=C3)OC(OC(=O)C4=CC=CC=C4)C2F", "physical_data": {"Molecular Weight": "464.44", "Molecular Formula": "C26H21FO7", "Melting Point": "82 \u00b0C"}}