{"cas_no": "97682-44-5", "cn_name": "\u4f0a\u7acb\u66ff\u5eb7", "en_name": ["Irinotecan", "[1,4\u2032-Bipiperidine]-1\u2032-carboxylic acid, (4S)-4,11-diethyl-3,4,12,14-tetrahydro-4-hydroxy-3,14-dioxo-1H-pyrano[3\u2032,4\u2032:6,7]indolizino[1,2-b]quinolin-9-yl ester", "[1,4\u2032-Bipiperidine]-1\u2032-carboxylic acid, 4,11-diethyl-3,4,12,14-tetrahydro-4-hydroxy-3,14-dioxo-1H-pyrano[3\u2032,4\u2032:6,7]indolizino[1,2-b]quinolin-9-yl ester, (S)-", "1H-Pyrano[3\u2032,4\u2032:6,7]indolizino[1,2-b]quinoline, [1,4\u2032-bipiperidine]-1\u2032-carboxylic acid deriv.", "Irinotecan", "(+)-Irinotecan", "Irinotecan lactone", "Irinophore C", "Irinotecan mylan", "(19S)-10,19-Diethyl-19-hydroxy-14,18-dioxo-17-oxa-3,13-diazapentacyclo[11.8.0.0[2,11].0[4,9].0[15,20]]henicosa-1(21),2(11),3,5,7,9,15(20)-heptaen-7-yl 4-(piperidin-1-yl)piperidine-1-carboxylate", "ZINC 1612996"], "SMILES": "C(C)C1=C2C(C=3N(C2)C(=O)C4=C(C3)C(CC)(O)C(=O)OC4)=NC=5C1=CC(OC(=O)N6CCC(CC6)N7CCCCC7)=CC5", "physical_data": {"Molecular Weight": "586.68", "Molecular Formula": "C33H38N4O6", "Melting Point": "222-223 \u00b0C"}}