{"cas_no": "977-79-7", "cn_name": "\u7f8e\u5c48\u5b55\u916e", "en_name": ["Medrogestone", "Pregna-4,6-diene-3,20-dione, 6,17-dimethyl-", "6,17-Dimethylpregna-4,6-diene-3,20-dione", "AY 62022", "Colprone", "Medrogestone", "Metrogestone", "AY 13615S", "Medrogesterone", "6,17-Dimethyl-6-dehydroprogesterone", "Colpro", "Etogyn", "AY 13615", "Prothil", "NSC 123018"], "SMILES": "CC12C(C3C(C4(C)C(C(C)=C3)=CC(=O)CC4)CC1)CCC2(C(C)=O)C", "physical_data": {"Molecular Weight": "340.50", "Molecular Formula": "C23H32O2", "Melting Point": "144 \u00b0C"}}