{"cas_no": "977-96-8", "cn_name": "1,1'-\u4e8c\u4e59\u57fa-2,2'-\u7898\u5316\u6c30", "en_name": ["Pseudoisocyanine", "Quinolinium, 1-ethyl-2-[(1-ethyl-2(1H)-quinolinylidene)methyl]-, iodide (1:1)", "Quinolinium, 1-ethyl-2-[(1-ethyl-2(1H)-quinolylidene)methyl]-, iodide", "Quinolinium, 1-ethyl-2-[(1-ethyl-2(1H)-quinolinylidene)methyl]-, iodide", "1-Ethyl-2-[(1-ethyl-4(1H)-quinolylidene)methyl]quinolinium iodide", "1-Ethyl-2-[(1-ethyl-2(1H)-quinolylidene)methyl]quinolinium iodide", "1,1\u2032-Diethyl-2,2\u2032-cyanine iodide", "1,1\u2032-Diethyl-2,2\u2032-quinocyanine iodide", "2,2\u2032-Quinocyanine iodide", "Pseudoisocyanin", "N,N\u2032-Diethylpseudoisocyanine iodide", "Pseudoisocyanine", "Pseudoisocyanine iodide", "Diethylcyanine iodide", "Eastman 7851", "1,1\u2032-Diethyl-2,2\u2032-diquinocyanine iodide", "pseudo-Isocyanine iodide", "Decynium 22", "PICI"], "SMILES": "C(C)N1C=2C(C=CC1=CC3=[N+](CC)C4=C(C=C3)C=CC=C4)=CC=CC2.[I-]", "physical_data": {"Molecular Weight": "", "Molecular Formula": "C23H23N2.I", "Melting Point": "265 \u00b0C (decomp)"}}