{"cas_no": "97760-98-0", "cn_name": "4-\u7898-2-\u4e09\u6c1f\u7532\u57fa\u4e59\u9170\u80fa", "en_name": ["N-[4-Iodo-2-(trifluoromethyl)phenyl]acetamide", "Acetamide, N-[4-iodo-2-(trifluoromethyl)phenyl]-", "N-[4-Iodo-2-(trifluoromethyl)phenyl]acetamide"], "SMILES": "C(F)(F)(F)C1=C(NC(C)=O)C=CC(I)=C1", "physical_data": {"Molecular Weight": "329.06", "Molecular Formula": "C9H7F3INO", "Melting Point": "132 \u00b0C"}}