{"cas_no": "97792-45-5", "cn_name": "\u6c22\u6eb4\u9178\u9ad8\u4e4c\u7532\u7d20", "en_name": ["Lappaconitine hydrobromide", "Aconitane-4,8,9-triol, 20-ethyl-1,14,16-trimethoxy-, 4-[2-(acetylamino)benzoate], hydrobromide (1:1), (1\u03b1,14\u03b1,16\u03b2)-", "Aconitane-4,8,9-triol, 20-ethyl-1,14,16-trimethoxy-, 4-[2-(acetylamino)benzoate], monohydrobromide, (1\u03b1,14\u03b1,16\u03b2)-", "2H-12,3,6a-Ethanylylidene-7,9-methanonaphth[2,3-b]azocine, aconitane-4,8,9-triol deriv.", "Lappaconitine hydrobromide", "Allapinine", "Allafort"], "SMILES": "O(C)C1C23C4C(OC(=O)C5=C(NC(C)=O)C=CC=C5)(CN(CC)C2C(C4)C6(O)C7(O)C3CC(C7OC)C(OC)C6)CC1.Br", "physical_data": {"Molecular Weight": "", "Molecular Formula": "C32H44N2O8.BrH", "Melting Point": "223-226 \u00b0C (decomp)"}}