{"cas_no": "978-86-9", "cn_name": "\u4e09\u82ef\u7532\u57fa\u82ef\u915a", "en_name": ["4-(Triphenylmethyl)phenol", "Phenol, 4-(triphenylmethyl)-", "p-Cresol, \u03b1,\u03b1,\u03b1-triphenyl-", "4-(Triphenylmethyl)phenol", "4-Tritylphenol", "p-Tritylphenol", "NSC 39742", "NSC 56593"], "SMILES": "C(C1=CC=C(O)C=C1)(C2=CC=CC=C2)(C3=CC=CC=C3)C4=CC=CC=C4", "physical_data": {"Molecular Weight": "336.43", "Molecular Formula": "C25H20O", "Melting Point": "282 \u00b0C"}}