{"cas_no": "97845-60-8", "cn_name": "9-(4-\u4e59\u9170\u6c27\u57fa-3-\u4e59\u9170\u6c27\u7532\u57fa\u4e01\u57fa)-2-\u6c28\u57fa-6-\u6c2f\u560c\u5464", "en_name": ["1,1\u2032-[2-[2-(2-amino-6-chloro-9H-purin-9-yl)ethyl]-1,3-propanediyl] diacetate", "1,3-Propanediol, 2-[2-(2-amino-6-chloro-9H-purin-9-yl)ethyl]-, 1,3-diacetate", "1,3-Propanediol, 2-[2-(2-amino-6-chloro-9H-purin-9-yl)ethyl]-, diacetate (ester)", "1,1\u2032-[2-[2-(2-amino-6-chloro-9H-purin-9-yl)ethyl]-1,3-propanediyl] diacetate", "9-[4-Acetoxy-3-(acetoxymethyl)butyl]-2-amino-6-chloropurine", "2-Amino-6-chloro-9-(4-acetoxy-3-acetoxymethylbutyl)purine", "[2-(Acetyloxymethyl)-4-(2-amino-6-chloropurin-9-yl)butyl] acetate"], "SMILES": "C(CC(COC(C)=O)COC(C)=O)N1C=2C(N=C1)=C(Cl)N=C(N)N2", "physical_data": {"Molecular Weight": "355.78", "Molecular Formula": "C14H18ClN5O4", "Melting Point": "132-134 \u00b0C"}}