{"cas_no": "97858-62-3", "cn_name": "(S,S)-DIPAMP", "en_name": ["(1S,1\u2032S)-1,1\u2032-(1,2-Ethanediyl)bis[1-(2-methoxyphenyl)-1-phenylphosphine]", "Phosphine, 1,1\u2032-(1,2-ethanediyl)bis[1-(2-methoxyphenyl)-1-phenyl-, (1S,1\u2032S)-", "Phosphine, 1,2-ethanediylbis[(2-methoxyphenyl)phenyl-, [S-(R*,R*)]-", "Phosphine, 1,2-ethanediylbis[(2-methoxyphenyl)phenyl-, (1S,1\u2032S)-", "(1S,1\u2032S)-1,1\u2032-(1,2-Ethanediyl)bis[1-(2-methoxyphenyl)-1-phenylphosphine]", "(S,S)-DIPAMP", "(S,S)-DIPAMP"], "SMILES": "P(CCP(C1=C(OC)C=CC=C1)C2=CC=CC=C2)(C3=C(OC)C=CC=C3)C4=CC=CC=C4", "physical_data": {"Molecular Weight": "458.47", "Molecular Formula": "C28H28O2P2", "Melting Point": "102-103 \u00b0C"}}