{"cas_no": "97886-45-8", "cn_name": "\u6c1f\u6c2f\u8349\u5b9a", "en_name": ["Dithiopyr", "3,5-Pyridinedicarbothioic acid, 2-(difluoromethyl)-4-(2-methylpropyl)-6-(trifluoromethyl)-, S3,S5-dimethyl ester", "3,5-Pyridinedicarbothioic acid, 2-(difluoromethyl)-4-(2-methylpropyl)-6-(trifluoromethyl)-, S,S-dimethyl ester", "MON 7200", "MON 15100", "Dithiopyr", "MON 15151", "Dimension", "Stakeout", "Dimension (herbicide)", "Dimension 2EW"], "SMILES": "C(C(C)C)C=1C(C(SC)=O)=C(C(F)(F)F)N=C(C(F)F)C1C(SC)=O", "physical_data": {"Molecular Weight": "401.42", "Molecular Formula": "C15H16F5NO2S2", "Melting Point": "65 \u00b0C"}}