{"cas_no": "979-32-8", "cn_name": "\u620a\u9178\u96cc\u4e8c\u9187", "en_name": ["Estradiol valerate", "Estra-1,3,5(10)-triene-3,17-diol (17\u03b2)-, 17-pentanoate", "Estradiol, 17-valerate", "Estradiol valerate", "Delahormone unimatic", "Delestrogen 4x", "Estra-1,3,5(10)-triene-3,17\u03b2-diol 17-valerate", "Estradiol 17\u03b2-valerate", "Estradiol valerianate", "Progynon-Depot", "3-Hydroxy-17\u03b2-valeroyloxyestra-1,3,5(10)-triene", "Atladiol", "Deladiol", "Progynova", "Estraval", "Femogex", "Neofollin", "Pharlon", "Dura-Estradiol", "Delestrogen", "Primogyn-Depot", "Nuvelle", "Oestradiol valerinate", "Pelanin Depot", "Gynogen LA", "Gynogen LA 40", "NSC 17590", "Valergen", "Climaval", "Primofol-Depot", "Gynokadin", "Meriestra", "Valest", "Estradiol valerat", "E2 valerate"], "SMILES": "CC12C(C3C(C=4C(CC3)=CC(O)=CC4)CC1)CCC2OC(CCCC)=O", "physical_data": {"Molecular Weight": "356.50", "Molecular Formula": "C23H32O3", "Melting Point": "144-145 \u00b0C"}}