{"cas_no": "979-92-0", "cn_name": "S-(5'-\u817a\u82f7)-L-\u9ad8\u534a\u80f1\u6c28\u9178", "en_name": ["Adenosylhomocysteine", "L-Homocysteine, S-(5\u2032-deoxyadenosin-5\u2032-yl)-", "Adenosine, 5\u2032-S-(3-amino-3-carboxypropyl)-5\u2032-thio-, L-", "Homocysteine, S-adenosyl-, L-", "S-(5\u2032-Deoxyadenosin-5\u2032-yl)-L-homocysteine", "Adenosylhomocysteine", "S-Adenosylhomocysteine", "Adenosyl-L-homocysteine", "S-Adenosyl-L-homocysteine", "L-S-Adenosylhomocysteine", "S-(5\u2032-Adenosyl)-L-homocysteine", "SAH", "SAH (S-Adenosylhomocysteine)"], "SMILES": "OC1C(N2C=3C(N=C2)=C(N)N=CN3)OC(CSCCC(C(O)=O)N)C1O", "physical_data": {"Molecular Weight": "384.41", "Molecular Formula": "C14H20N6O5S", "Melting Point": "209-211 \u00b0C"}}