{"cas_no": "979-02-2", "cn_name": "\u918b\u9178\u598a\u5a20\u53cc\u70ef\u9187\u916e\u916f", "en_name": ["Dehydropregnenolone acetate", "Pregna-5,16-dien-20-one, 3-(acetyloxy)-, (3\u03b2)-", "Pregna-5,16-dien-20-one, 3\u03b2-hydroxy-, acetate", "(3\u03b2)-3-(Acetyloxy)pregna-5,16-dien-20-one", "3\u03b2-Acetoxypregna-5,16-dien-20-one", "16-Dehydropregnenolone acetate", "3\u03b2-Acetoxypregna-5,16-diene-20-one", "Dehydropregnenolone acetate", "16,17-Didehydropregnenolone acetate", "20-Oxopregna-5,16-dien-3\u03b2-yl acetate", "Pregnadienolone acetate", "(-)-16-Dehydropregnenolone acetate", "16-DPA", "NSC 37741", "3\u03b2-Acetyloxy-pregna-5,16-dien-20-one", "16-Dehydropregnenolone-3\u03b2-acetate"], "SMILES": "CC12C(C3C(CC1)C4(C)C(=CC3)CC(OC(C)=O)CC4)CC=C2C(C)=O", "physical_data": {"Molecular Weight": "356.50", "Molecular Formula": "C23H32O3", "Melting Point": "174 \u00b0C"}}