{"cas_no": "97931-41-4", "cn_name": "METHYL 3-CARBAZOLECARBOXYLATE", "en_name": ["Methyl carbazole-3-carboxylate", "9H-Carbazole-3-carboxylic acid, methyl ester", "Carbazole-3-carboxylic acid, methyl ester", "Methyl carbazole-3-carboxylate", "Methyl 9H-carbazole-3-carboxylate"], "SMILES": "C(OC)(=O)C=1C=C2C=3C(NC2=CC1)=CC=CC3", "physical_data": {"Molecular Weight": "225.24", "Molecular Formula": "C14H11NO2", "Melting Point": "183-185 \u00b0C"}}