{"cas_no": "97944-43-9", "cn_name": "3-\u6eb4-5-\u7532\u57fa\u5421\u5576-4-\u7532\u80fa", "en_name": ["3-Bromo-5-methyl-4-pyridinamine", "4-Pyridinamine, 3-bromo-5-methyl-", "3-Bromo-5-methyl-4-pyridinamine", "4-Amino-5-bromo-3-methylpyridine", "3-Bromo-5-methyl-1,4-dihydropyridin-4-imine"], "SMILES": "NC=1C(Br)=CN=CC1C", "physical_data": {"Molecular Weight": "187.04", "Molecular Formula": "C6H7BrN2", "Melting Point": "115.0 \u00b0C"}}