{"cas_no": "97944-42-8", "cn_name": "3-\u6c2f-5-\u7532\u57fa-4-\u6c28\u57fa\u5421\u5576", "en_name": ["3-Chloro-5-methyl-4-pyridinamine", "4-Pyridinamine, 3-chloro-5-methyl-", "3-Chloro-5-methyl-4-pyridinamine"], "SMILES": "NC=1C(C)=CN=CC1Cl", "physical_data": {"Molecular Weight": "142.59", "Molecular Formula": "C6H7ClN2", "Melting Point": "110.0 \u00b0C"}}