{"cas_no": "97944-40-6", "cn_name": "3-\u6c2f-2-\u7532\u57fa\u5421\u5576-4-\u80fa", "en_name": ["3-Chloro-2-methyl-4-pyridinamine", "4-Pyridinamine, 3-chloro-2-methyl-", "3-Chloro-2-methyl-4-pyridinamine", "4-Amino-3-chloro-2-methylpyridine"], "SMILES": "ClC=1C(N)=CC=NC1C", "physical_data": {"Molecular Weight": "142.59", "Molecular Formula": "C6H7ClN2", "Melting Point": "110.0 \u00b0C"}}