{"cas_no": "97944-45-1", "cn_name": "2-\u6c2f-4-\u785d\u57fa-5-\u7532\u57fa\u5421\u5576", "en_name": ["2-Chloro-5-methyl-4-nitropyridine", "Pyridine, 2-chloro-5-methyl-4-nitro-", "2-Chloro-5-methyl-4-nitropyridine"], "SMILES": "N(=O)(=O)C=1C(C)=CN=C(Cl)C1", "physical_data": {"Molecular Weight": "172.57", "Molecular Formula": "C6H5ClN2O2", "Boiling Point": "130 \u00b0C @ Press: 22 Torr"}}