{"cas_no": "97944-44-0", "cn_name": "2-\u7532\u57fa-4-\u6c28\u57fa-5-\u6c2f\u5421\u5576", "en_name": ["5-Chloro-2-methyl-4-pyridinamine", "4-Pyridinamine, 5-chloro-2-methyl-", "5-Chloro-2-methyl-4-pyridinamine", "3-Chloro-6-methyl-4-pyridinamine", "5-Chloro-2-methylpyridin-4-amine"], "SMILES": "NC=1C(Cl)=CN=C(C)C1", "physical_data": {"Molecular Weight": "142.59", "Molecular Formula": "C6H7ClN2", "Melting Point": "98.0 \u00b0C"}}