{"cas_no": "97963-62-7", "cn_name": "5-\u4e8c\u6c1f\u7532\u6c27\u57fa-2-\u5def\u57fa-1H-\u82ef\u5e76\u54aa\u5511", "en_name": ["5-(Difluoromethoxy)-2-mercapto-1H-benzimidazole", "2H-Benzimidazole-2-thione, 5-(difluoromethoxy)-1,3-dihydro-", "5-(Difluoromethoxy)-1,3-dihydro-2H-benzimidazole-2-thione", "5-(Difluoromethoxy)-2-mercapto-1H-benzimidazole", "5-Difluoromethoxy-2-mercaptobenzimidazole", "2-Mercapto-5-difluoromethoxy-1H-benzimidazole", "SKA 47"], "SMILES": "O(C(F)F)C=1C=C2C(=CC1)NC(=S)N2", "physical_data": {"Molecular Weight": "216.21", "Molecular Formula": "C8H6F2N2OS", "Melting Point": "141-161 \u00b0C (decomp)"}}