{"cas_no": "98-08-8", "cn_name": "\u4e09\u6c1f\u7532\u82ef", "en_name": ["(Trifluoromethyl)benzene", "Benzene, (trifluoromethyl)-", "Toluene, \u03b1,\u03b1,\u03b1-trifluoro-", "Toluene, \u03b1-trifluoro-", "(Trifluoromethyl)benzene", "Benzotrifluoride", "Phenylfluoroform", "\u03b1,\u03b1,\u03b1-Trifluorotoluene", "Benzenyl fluoride", "Benzylidyne fluoride", "1\u2032,1\u2032,1\u2032-Trifluorotoluene", "Oxsol 2000", "UN 238", "NSC 8038", "Trifluoro(phenyl)methane", "(1,1\u2032,1\u2032\u2032-Trifluoromethyl)benzene"], "SMILES": "C(F)(F)(F)C1=CC=CC=C1", "physical_data": {"Molecular Weight": "146.11", "Molecular Formula": "C7H5F3", "Boiling Point": "103.46 \u00b0C", "Melting Point": "-29.05 \u00b0C", "Density": "1.1886 g/cm\u00b3 @ Temp: 20 \u00b0C"}}