{"cas_no": "98-00-0", "cn_name": "\u7ce0\u9187", "en_name": ["Furfuryl alcohol", "2-Furanmethanol", "Furfuryl alcohol", "2-Furancarbinol", "Furfuralcohol", "\u03b1-Furylcarbinol", "2-Furylcarbinol", "Furylcarbinol", "2-Furfuryl alcohol", "2-(Hydroxymethyl)furan", "5-Hydroxymethylfuran", "\u03b1-Furfuryl alcohol", "2-Furylmethanol", "2-Furanylmethanol", "Chem-Rez 200", "Furfuranol", "NSC 8843", "2-Furylmethyl alcohol", "Chem-Rez Fury 454"], "SMILES": "C(O)C1=CC=CO1", "physical_data": {"Molecular Weight": "98.10", "Molecular Formula": "C5H6O2", "Boiling Point": "171 \u00b0C @ Press: 750 Torr", "Melting Point": "-15 \u00b0C", "Density": "1.1296 g/cm\u00b3 @ Temp: 20 \u00b0C"}}