{"cas_no": "98-02-2", "cn_name": "\u7ce0(\u57fa)\u786b\u9187", "en_name": ["2-Furanmethanethiol", "2-Furanmethanethiol", "Furfuryl mercaptan", "Furfuryl thiol", "2-Furylmethyl mercaptan", "2-Furylmethanethiol", "2-(Mercaptomethyl)furan", "(2-Furanyl)methylmercaptan", "2-Furfurylmercaptan", "Furan-2-ylmethanethiol", "NSC 41142", "2-Furfurylthiol", "Furfurylthiol", "2-Furylmethylthiol"], "SMILES": "C(S)C1=CC=CO1", "physical_data": {"Molecular Weight": "114.17", "Molecular Formula": "C5H6OS", "Boiling Point": "157 \u00b0C"}}