{"cas_no": "98-04-4", "cn_name": "\u82ef\u57fa\u4e09\u7532\u57fa\u7898\u5316\u94f5", "en_name": ["Benzenaminium, N,N,N-trimethyl-, iodide (1:1)", "Benzenaminium, N,N,N-trimethyl-, iodide (1:1)", "Ammonium, trimethylphenyl-, iodide", "Trimethylphenylammonium iodide", "Benzenaminium, N,N,N-trimethyl-, iodide", "Phenyltrimethylammonium iodide", "PHT", "N,N,N-Trimethylanilinium iodide", "Trimethylanilinium iodide", "N,N-Dimethylaniline methiodide", "N,N,N-Trimethylaniline iodide"], "SMILES": "[N+](C)(C)(C)C1=CC=CC=C1.[I-]", "physical_data": {"Molecular Weight": "", "Molecular Formula": "C9H14N.I", "Melting Point": "224 \u00b0C"}}