{"cas_no": "98-09-9", "cn_name": "\u82ef\u78fa\u9170\u6c2f", "en_name": ["Benzenesulfonyl chloride", "Benzenesulfonyl chloride", "Benzene sulfochloride", "Benzenesulfonic chloride", "Phenylsulfonyl chloride", "NSC 2864", "Benzene-1-sulfonyl chloride"], "SMILES": "S(Cl)(=O)(=O)C1=CC=CC=C1", "physical_data": {"Molecular Weight": "176.62", "Molecular Formula": "C6H5ClO2S", "Boiling Point": "120 \u00b0C @ Press: 10 Torr", "Melting Point": "14.5 \u00b0C", "Density": "1.3842 g/cm\u00b3 @ Temp: 15 \u00b0C"}}