{"cas_no": "98-01-1", "cn_name": "\u7ce0\u919b", "en_name": ["Furfural", "2-Furancarboxaldehyde", "2-Furaldehyde", "Artificial ant oil", "Fural", "2-Furanaldehyde", "2-Furancarbonal", "Furfural", "Furfuraldehyde", "Furfurol", "Furfurole", "Furole", "Pyromucic aldehyde", "\u03b1-Furole", "Furancarbonal", "2-Formylfuran", "Furaldehyde", "2-Furfural", "2-Furfuraldehyde", "2-Furylaldehyde", "Furfurylaldehyde", "2-Furylcarboxaldehyde", "2-Furancarbaldehyde", "NSC 8841", "Furan-2-carboxaldehyde", "2-Furanal", "Furfurals"], "SMILES": "C(=O)C1=CC=CO1", "physical_data": {"Molecular Weight": "96.08", "Molecular Formula": "C5H4O2", "Boiling Point": "18.5 \u00b0C @ Press: 1.0 Torr", "Melting Point": "-38.7 \u00b0C", "Density": "1.1563 g/cm\u00b3 @ Temp: 25 \u00b0C"}}