{"cas_no": "98-03-3", "cn_name": "2-\u567b\u5429\u7532\u919b", "en_name": ["2-Thiophenecarboxaldehyde", "2-Thiophenecarboxaldehyde", "\u03b1-Thiophenecarboxaldehyde", "2-Formylthiophene", "2-Thiophenealdehyde", "\u03b1-Formylthiophene", "2-Thienylcarboxaldehyde", "2-Thienylaldehyde", "Thiophene-2-carbaldehyde", "2-Thienaldehyde", "2-Formylthiofuran", "\u03b1-Thiophenaldehyde", "NSC 2162", "2-Thiofurancarboxaldehyde", "Thiophene-o-carboxaldehyde", "Thiofurfural", "2-Thienylcarbaldehyde", "Thiophene-2-carboxaldehyde", "2-Thiophenaldehyde", "Thiophen-2-carbaldehyde"], "SMILES": "C(=O)C1=CC=CS1", "physical_data": {"Molecular Weight": "112.15", "Molecular Formula": "C5H4OS", "Boiling Point": "197 \u00b0C", "Melting Point": "150-151 \u00b0C", "Density": "1.2800 g/cm\u00b3 @ Temp: 244 \u00b0C"}}