{"cas_no": "98-06-6", "cn_name": "\u53d4\u4e01\u57fa\u82ef", "en_name": ["tert-Butylbenzene", "Benzene, (1,1-dimethylethyl)-", "Benzene, tert-butyl-", "(1,1-Dimethylethyl)benzene", "tert-Butylbenzene", "2-Methyl-2-phenylpropane", "Trimethylphenylmethane", "Dimethylethylbenzene", "t-Butylbenzene", "Phenyltrimethylmethane", "NSC 6557"], "SMILES": "C(C)(C)(C)C1=CC=CC=C1", "physical_data": {"Molecular Weight": "134.22", "Molecular Formula": "C10H14", "Boiling Point": "169.1 \u00b0C", "Melting Point": "-57.8 \u00b0C", "Density": "0.8669 g/cm\u00b3 @ Temp: 20 \u00b0C"}}