{"cas_no": "98-07-7", "cn_name": "\u4e09\u6c2f\u5316\u82c4", "en_name": ["Benzotrichloride", "Benzene, (trichloromethyl)-", "Toluene, \u03b1,\u03b1,\u03b1-trichloro-", "(Trichloromethyl)benzene", "Benzenyl trichloride", "Benzotrichloride", "Benzylidyne chloride", "Phenylchloroform", "Toluene trichloride", "\u03b1,\u03b1,\u03b1-Trichlorotoluene", "\u03c9,\u03c9,\u03c9-Trichlorotoluene", "Benzenyl chloride", "Benzyl trichloride", "Phenyltrichloromethane", "1-(Trichloromethyl)benzene", "Trichlorophenylmethane", "NSC 14663"], "SMILES": "C(Cl)(Cl)(Cl)C1=CC=CC=C1", "physical_data": {"Molecular Weight": "195.47", "Molecular Formula": "C7H5Cl3", "Boiling Point": "105 \u00b0C @ Press: 25 Torr", "Melting Point": "-5.0 \u00b0C", "Density": "1.3756 g/cm\u00b3 @ Temp: 20 \u00b0C"}}