{"cas_no": "98-05-5", "cn_name": "\u82ef\u80c2\u9178", "en_name": ["Phenylarsonic acid", "Arsonic acid, As-phenyl-", "Benzenearsonic acid", "Arsonic acid, phenyl-", "As-Phenylarsonic acid", "Phenylarsonic acid", "Monophenylarsonic acid", "NSC 15566"], "SMILES": "[As](=O)(O)(O)C1=CC=CC=C1", "physical_data": {"Molecular Weight": "202.04", "Molecular Formula": "C6H7AsO3", "Boiling Point": "66 \u00b0C @ Press: 1 Torr", "Melting Point": "158 \u00b0C (decomp)", "Density": "1.760 g/cm\u00b3 @ Temp: 25 \u00b0C"}}