{"cas_no": "98-15-7", "cn_name": "\u95f4\u6c2f\u4e09\u6c1f\u7532\u82ef", "en_name": ["3-Chlorobenzotrifluoride", "Benzene, 1-chloro-3-(trifluoromethyl)-", "Toluene, m-chloro-\u03b1,\u03b1,\u03b1-trifluoro-", "1-Chloro-3-(trifluoromethyl)benzene", "m-Chlorobenzotrifluoride", "m-Chloro-\u03b1,\u03b1,\u03b1-trifluorotoluene", "m-(Trifluoromethyl)phenyl chloride", "3-Chloro-\u03b1,\u03b1,\u03b1-trifluorotoluene", "3-Chlorobenzotrifluoride", "3-Chloro(trifluoromethyl)benzene", "m-Chloro(trifluoromethyl)benzene", "m-(Trifluoromethyl)chlorobenzene", "3-(Trifluoromethyl)chlorobenzene", "NSC 10308", "3-Trifluoromethylphenyl chloride", "3-Trifluoromethyl-1-chlorobenzene", "3-Chloro-1-trifluoromethylbenzene"], "SMILES": "C(F)(F)(F)C1=CC(Cl)=CC=C1", "physical_data": {"Molecular Weight": "180.55", "Molecular Formula": "C7H4ClF3", "Boiling Point": "137.5 \u00b0C", "Melting Point": "-56 \u00b0C"}}