{"cas_no": "98-16-8", "cn_name": "\u95f4\u6c28\u57fa\u4e09\u6c1f\u7532\u82ef", "en_name": ["3-(Trifluoromethyl)aniline", "Benzenamine, 3-(trifluoromethyl)-", "m-Toluidine, \u03b1,\u03b1,\u03b1-trifluoro-", "3-(Trifluoromethyl)benzenamine", "\u03b1,\u03b1,\u03b1-Trifluoro-m-toluidine", "m-Aminobenzotrifluoride", "3-(Trifluoromethyl)aniline", "m-(Trifluoromethyl)aniline", "m-Amino-\u03b1,\u03b1,\u03b1-trifluorotoluene", "3-Aminobenzotrifluoride", "1-Amino-3-(trifluoromethyl)benzene", "m-Aminobenzal fluoride", "3-Amino-\u03b1,\u03b1,\u03b1-trifluorotoluene", "m-Trifluoromethylaniline", "3-(Trifluoromethyl)phenylamine", "NSC 4540"], "SMILES": "C(F)(F)(F)C1=CC(N)=CC=C1", "physical_data": {"Molecular Weight": "161.12", "Molecular Formula": "C7H6F3N", "Boiling Point": "187.5 \u00b0C @ Press: 764 Torr", "Melting Point": "5.5 \u00b0C", "Density": "1.2954 g/cm\u00b3 @ Temp: 204 \u00b0C"}}