{"cas_no": "98-10-2", "cn_name": "\u82ef\u78fa\u9170\u80fa", "en_name": ["Benzenesulfonamide", "Benzenesulfonamide", "Benzenesulphonamide", "M and B 7973", "Phenylsulfonamide", "NSC 5341", "NSC 85506", "Benzenesulfonyl amine"], "SMILES": "S(N)(=O)(=O)C1=CC=CC=C1", "physical_data": {"Molecular Weight": "157.19", "Molecular Formula": "C6H7NO2S", "Melting Point": "151 \u00b0C"}}