{"cas_no": "98-18-0", "cn_name": "\u95f4\u6c28\u57fa\u82ef\u78fa\u9170\u80fa", "en_name": ["3-Aminobenzenesulfonamide", "Benzenesulfonamide, 3-amino-", "Metanilamide", "3-Aminobenzenesulfonamide", "m-Aminobenzenesulfonamide", "3-Aminosulfonylaniline", "m-Sulfamoylaniline", "NSC 7542", "3-Sulfamoylaniline", "3-Sulfamoylphenylamine", "3-Aminobenzene-1-sulfonamide"], "SMILES": "S(N)(=O)(=O)C1=CC(N)=CC=C1", "physical_data": {"Molecular Weight": "172.20", "Molecular Formula": "C6H8N2O2S", "Melting Point": "139-141 \u00b0C"}}