{"cas_no": "98-13-5", "cn_name": "\u82ef\u57fa\u4e09\u6c2f\u7845\u70f7", "en_name": ["Phenyltrichlorosilane", "Benzene, (trichlorosilyl)-", "Silane, trichlorophenyl-", "(Trichlorosilyl)benzene", "Phenylsilicon trichloride", "Phenyltrichlorosilane", "Silicon phenyl trichloride", "Trichlorophenylsilane", "Phenylsilyl trichloride", "TSL 8063", "KA 103", "NSC 77080", "phenyl chloride silicide"], "SMILES": "[Si](Cl)(Cl)(Cl)C1=CC=CC=C1", "physical_data": {"Molecular Weight": "211.55", "Molecular Formula": "C6H5Cl3Si", "Boiling Point": "201 \u00b0C", "Melting Point": "-33 \u00b0C", "Density": "1.321 g/cm\u00b3 @ Temp: 25 \u00b0C"}}