{"cas_no": "98-17-9", "cn_name": "\u95f4\u4e09\u6c1f\u7532\u57fa\u82ef\u915a", "en_name": ["3-(Trifluoromethyl)phenol", "Phenol, 3-(trifluoromethyl)-", "m-Cresol, \u03b1,\u03b1,\u03b1-trifluoro-", "3-(Trifluoromethyl)phenol", "m-Hydroxybenzotrifluoride", "m-(Trifluoromethyl)phenol", "3-Hydroxybenzotrifluoride", "\u03b1,\u03b1,\u03b1-Trifluoro-m-cresol", "m-\u03b1,\u03b1,\u03b1-Trifluorocresol", "5-Trifluoromethylphenol", "NSC 9884"], "SMILES": "C(F)(F)(F)C1=CC(O)=CC=C1", "physical_data": {"Molecular Weight": "162.11", "Molecular Formula": "C7H5F3O", "Boiling Point": "178 \u00b0C", "Melting Point": "-1.8 \u00b0C", "Density": "1.3458 g/cm\u00b3 @ Temp: 25 \u00b0C"}}