{"cas_no": "98-11-3", "cn_name": "\u82ef\u78fa\u9178", "en_name": ["Benzenesulfonic acid", "Benzenesulfonic acid", "Phenylsulfonic acid", "Besylic acid", "Benzenemonosulfonic acid", "17-120A", "Benzenesulfonic acid (surfactant)", "BSA", "Benzensulfonic acid", "BW 70", "Alkylbenzenesulfonate", "1: PN: WO2020008043 SEQID: 105 claimed sequence", "Nansa 63B"], "SMILES": "S(=O)(=O)(O)C1=CC=CC=C1", "physical_data": {"Molecular Weight": "158.18", "Molecular Formula": "C6H6O3S", "Melting Point": "65 \u00b0C"}}