{"cas_no": "98-19-1", "cn_name": "1-\u53d4\u4e01\u57fa-3,5-\u4e8c\u7532\u82ef", "en_name": ["1-(1,1-Dimethylethyl)-3,5-dimethylbenzene", "Benzene, 1-(1,1-dimethylethyl)-3,5-dimethyl-", "m-Xylene, 5-tert-butyl-", "1-(1,1-Dimethylethyl)-3,5-dimethylbenzene", "5-tert-Butyl-m-xylene", "5-tert-Butyl-1,3-dimethylbenzene", "1,3-Dimethyl-5-tert-butylbenzene", "3,5-Dimethyl-tert-butylbenzene", "1-tert-Butyl-3,5-dimethylbenzene", "5-(1,1-Dimethylethyl)-1,3-dimethylbenzene", "1,3-Dimethyl-5-(1,1-dimethylethyl)benzene", "NSC 11016", "(tert-Butyl)-3,5-dimethylbenzene"], "SMILES": "C(C)(C)(C)C1=CC(C)=CC(C)=C1", "physical_data": {"Molecular Weight": "162.27", "Molecular Formula": "C12H18", "Boiling Point": "207 \u00b0C", "Melting Point": "-18 \u00b0C", "Density": "0.8671 g/cm\u00b3"}}