{"cas_no": "98-14-6", "cn_name": "4-\u7f9f\u57fa\u82ef\u80c2\u9178", "en_name": ["(4-Hydroxyphenyl)arsonic acid", "Arsonic acid, As-(4-hydroxyphenyl)-", "Benzenearsonic acid, p-hydroxy-", "Arsonic acid, (4-hydroxyphenyl)-", "As-(4-Hydroxyphenyl)arsonic acid", "p-Hydroxybenzenearsonic acid", "(4-Hydroxyphenyl)arsonic acid", "Oxarsanilic acid", "Phenol-p-arsonic acid", "4-Hydroxybenzenearsonic acid", "(p-Hydroxyphenyl)arsonic acid", "NSC 1943"], "SMILES": "[As](=O)(O)(O)C1=CC=C(O)C=C1", "physical_data": {"Molecular Weight": "218.04", "Molecular Formula": "C6H7AsO4", "Melting Point": "170-174 \u00b0C"}}