{"cas_no": "98-12-4", "cn_name": "\u73af\u4e59\u57fa\u4e09\u6c2f\u7845\u70f7", "en_name": ["(Trichlorosilyl)cyclohexane", "Cyclohexane, (trichlorosilyl)-", "Silane, trichlorocyclohexyl-", "(Trichlorosilyl)cyclohexane", "Trichlorocyclohexylsilane", "Cyclohexyltrichlorosilane"], "SMILES": "[Si](Cl)(Cl)(Cl)C1CCCCC1", "physical_data": {"Molecular Weight": "217.60", "Molecular Formula": "C6H11Cl3Si", "Boiling Point": "90-91 \u00b0C @ Press: 10 Torr", "Density": "1.222 g/cm\u00b3"}}