{"cas_no": "98-29-3", "cn_name": "\u5bf9\u53d4\u4e01\u57fa\u90bb\u82ef\u4e8c\u915a", "en_name": ["4-tert-Butylcatechol", "1,2-Benzenediol, 4-(1,1-dimethylethyl)-", "Pyrocatechol, 4-tert-butyl-", "4-(1,1-Dimethylethyl)-1,2-benzenediol", "4-tert-Butylcatechol", "4-tert-Butylpyrocatechol", "p-tert-Butylcatechol", "4-tert-Butyl-1,2-dihydroxybenzene", "4-tert-Butylcatechin", "4-tert-Butyl-1,2-benzenediol", "1,2-Dihydroxy-4-tert-butylbenzene", "4-(1,1-Dimethylethyl)benzene-1,2-diol", "4-(1,1-Dimethylethyl)catechol", "4-TBC", "p-tert-Butylpyrocatechol", "4-tert-Butyl-o-catechol", "5-tert-Butylcatechol", "NSC 5310", "p-t-Butylcatechol", "NLC 10", "Inhibitor NLC 10", "Norpol 9853", "Norpol Inhibitor 9853", "TBC"], "SMILES": "C(C)(C)(C)C1=CC(O)=C(O)C=C1", "physical_data": {"Molecular Weight": "166.22", "Molecular Formula": "C10H14O2", "Boiling Point": "285 \u00b0C", "Melting Point": "54.3 \u00b0C"}}