{"cas_no": "98-28-2", "cn_name": "4-\u53d4-\u4e01\u57fa-2-\u6c2f\u82ef\u915a", "en_name": ["4-tert-Butyl-2-chlorophenol", "Phenol, 2-chloro-4-(1,1-dimethylethyl)-", "Phenol, 4-tert-butyl-2-chloro-", "2-Chloro-4-(1,1-dimethylethyl)phenol", "4-tert-Butyl-2-chlorophenol", "2-Chloro-4-tert-butylphenol", "NSC 8464"], "SMILES": "C(C)(C)(C)C1=CC(Cl)=C(O)C=C1", "physical_data": {"Molecular Weight": "184.66", "Molecular Formula": "C10H13ClO", "Boiling Point": "85-86 \u00b0C", "Density": "1.099 g/cm\u00b3 @ Temp: 20 \u00b0C"}}