{"cas_no": "98-27-1", "cn_name": "4-\u53d4\u4e01\u57fa-2-\u7532\u57fa\u82ef\u915a", "en_name": ["4-tert-Butyl-2-methylphenol", "Phenol, 4-(1,1-dimethylethyl)-2-methyl-", "o-Cresol, 4-tert-butyl-", "4-(1,1-Dimethylethyl)-2-methylphenol", "4-tert-Butyl-o-cresol", "p-tert-Butyl-o-cresol", "2-Methyl-4-tert-butylphenol", "4-tert-Butyl-2-methylphenol", "p-tert-Butyl-2-methylphenol", "NSC 8477", "NSC 98355"], "SMILES": "C(C)(C)(C)C1=CC(C)=C(O)C=C1", "physical_data": {"Molecular Weight": "164.24", "Molecular Formula": "C11H16O", "Boiling Point": "237 \u00b0C", "Melting Point": "27.5 \u00b0C", "Density": "0.9404 g/cm\u00b3 @ Temp: 20 \u00b0C"}}