{"cas_no": "98-32-8", "cn_name": "2-\u6c28\u57fa-4-\u78fa\u9170\u80fa\u57fa\u82ef\u915a", "en_name": ["2-Aminophenol-4-sulfonamide", "Benzenesulfonamide, 3-amino-4-hydroxy-", "Metanilamide, 4-hydroxy-", "1-Phenol-4-sulfonamide, 2-amino-", "3-Amino-4-hydroxybenzenesulfonamide", "o-Aminophenol-p-sulfonamide", "2-Aminophenol-4-sulfonamide", "2-Amino-4-sulfamoylphenol", "2-Amino-1-hydroxy-4-benzenesulfonamide", "4-Hydroxymetanilamide", "NSC 4976", "3-Amino-4-hydroxyphenylsulfonamide", "3-Amino-4-hydroxybenzene-1-sulfonamide"], "SMILES": "S(N)(=O)(=O)C1=CC(N)=C(O)C=C1", "physical_data": {"Molecular Weight": "188.20", "Molecular Formula": "C6H8N2O3S", "Melting Point": "202 \u00b0C"}}