{"cas_no": "98-30-6", "cn_name": "2-\u6c28\u57fa-4-\u7532\u781c\u57fa\u82ef\u915a", "en_name": ["2-Amino-4-(methylsulfonyl)phenol", "Phenol, 2-amino-4-(methylsulfonyl)-", "2-Amino-4-(methylsulfonyl)phenol", "4-Methylsulfonyl-2-aminophenol", "2-Hydroxy-5-methylsulfonylaniline", "3-Amino-4-hydroxyphenyl methyl sulfone", "2-Amino-4-(methanesulfonyl)phenol"], "SMILES": "S(C)(=O)(=O)C1=CC(N)=C(O)C=C1", "physical_data": {"Molecular Weight": "187.22", "Molecular Formula": "C7H9NO3S", "Melting Point": "153-154 \u00b0C"}}