{"cas_no": "98-31-7", "cn_name": "3,4-\u4e8c\u6c2f\u82ef\u7532\u57fa\u78fa\u9170\u6c2f", "en_name": ["3,4-Dichlorobenzenesulfonyl chloride", "Benzenesulfonyl chloride, 3,4-dichloro-", "3,4-Dichlorobenzenesulfonyl chloride", "3,4-Dichlorophenylsulfonyl chloride", "NSC 2651", "3,4-Dichlorobenzene-1-sulfonyl chloride"], "SMILES": "S(Cl)(=O)(=O)C1=CC(Cl)=C(Cl)C=C1", "physical_data": {"Molecular Weight": "245.51", "Molecular Formula": "C6H3Cl3O2S", "Melting Point": "67-69 \u00b0C"}}