{"cas_no": "98-47-5", "cn_name": "\u9632\u67d3\u76d0S", "en_name": ["3-Nitrobenzenesulfonic acid", "Benzenesulfonic acid, 3-nitro-", "Benzenesulfonic acid, m-nitro-", "3-Nitrobenzenesulfonic acid", "3-Nitrophenylsulfonic acid", "1-Nitro-3-benzenesulfonic acid", "m-Nitrobenzenesulfonic acid", "m-Nitrobenzenesulfonic acid", "m-Nitrophenylsulfonic acid", "NSC 166284", "3-Nitrobenzene-1-sulfonic acid"], "SMILES": "S(=O)(=O)(O)C1=CC(N(=O)=O)=CC=C1", "physical_data": {"Molecular Weight": "203.17", "Molecular Formula": "C6H5NO5S", "Melting Point": "103-104 \u00b0C"}}