{"cas_no": "98-42-0", "cn_name": "\u90bb\u6c28\u57fa\u82ef\u7532\u919a-4-\u78fa\u9178", "en_name": ["2-Aminoanisole-4-sulfonic acid", "Benzenesulfonic acid, 3-amino-4-methoxy-", "Metanilic acid, 4-methoxy-", "3-Amino-4-methoxybenzenesulfonic acid", "o-Anisidine-p-sulfonic acid", "2-Methoxy-5-sulfoaniline", "2-Methoxyaniline-5-sulfonic acid", "o-Anisidine-4-sulfonic acid", "2-Aminoanisole-4-sulfonic acid", "NSC 74459", "3-Amino-4-methoxybenzene-1-sulfonic acid", "2-Anisidine-4-sulfonic acid"], "SMILES": "S(=O)(=O)(O)C1=CC(N)=C(OC)C=C1", "physical_data": {"Molecular Weight": "203.22", "Molecular Formula": "C7H9NO4S", "Melting Point": "62 \u00b0C"}}