{"cas_no": "98-46-4", "cn_name": "\u95f4\u785d\u57fa\u4e09\u6c1f\u7532\u82ef", "en_name": ["5-Nitrobenzotrifluoride", "Benzene, 1-nitro-3-(trifluoromethyl)-", "Toluene, \u03b1,\u03b1,\u03b1-trifluoro-m-nitro-", "1-Nitro-3-(trifluoromethyl)benzene", "m-(Trifluoromethyl)nitrobenzene", "\u03b1,\u03b1,\u03b1-Trifluoro-m-nitrotoluene", "m-Nitrobenzotrifluoride", "3-(Trifluoromethyl)nitrobenzene", "3-Nitrobenzotrifluoride", "m-Nitro-\u03b1,\u03b1,\u03b1-trifluorotoluene", "3-(Trifluoromethyl)-1-nitrobenzene", "3-Nitro-1-(trifluoromethyl)benzene", "\u03b1,\u03b1,\u03b1-Trifluoro-3-nitrotoluene", "5-Nitrobenzotrifluoride", "NSC 10313", "m-Nitro(trifluoromethyl)benzene"], "SMILES": "C(F)(F)(F)C1=CC(N(=O)=O)=CC=C1", "physical_data": {"Molecular Weight": "191.11", "Molecular Formula": "C7H4F3NO2", "Boiling Point": "203 \u00b0C", "Melting Point": "-2.4 \u00b0C", "Density": "1.437 g/cm\u00b3 @ Temp: 15.5 \u00b0C"}}