{"cas_no": "98-44-2", "cn_name": "2-\u6c28\u57fa-1,4-\u82ef\u4e8c\u78fa\u9178", "en_name": ["2-Amino-1,4-benzenedisulfonic acid", "1,4-Benzenedisulfonic acid, 2-amino-", "p-Benzenedisulfonic acid, 2-amino-", "2-Amino-1,4-benzenedisulfonic acid", "2-Amino-p-benzenedisulfonic acid", "2-Amino-1,4-disulfobenzene", "Aniline-2,5-disulfonic acid", "2,5-Disulfo-1-aminobenzene", "2,5-Disulfoaniline", "4-Sulfometanilic acid", "1-Anilino-2,5-disulfonic acid", "1-Amino-2,5-benzenedisulfonic acid", "6-Aminobenzene-1,4-disulfonic acid", "NSC 5580"], "SMILES": "S(=O)(=O)(O)C1=CC(N)=C(S(=O)(=O)O)C=C1", "physical_data": {"Molecular Weight": "253.25", "Molecular Formula": "C6H7NO6S2", "Melting Point": "198-199 \u00b0C"}}