{"cas_no": "98-52-2", "cn_name": "4-\u53d4\u4e01\u57fa\u73af\u5df1\u9187", "en_name": ["4-tert-Butylcyclohexanol", "Cyclohexanol, 4-(1,1-dimethylethyl)-", "Cyclohexanol, 4-tert-butyl-", "4-(1,1-Dimethylethyl)cyclohexanol", "4-tert-Butylcyclohexanol", "NSC 404197", "4-tert-Butyl-1-cyclohexanol"], "SMILES": "C(C)(C)(C)C1CCC(O)CC1", "physical_data": {"Molecular Weight": "156.27", "Molecular Formula": "C10H20O", "Boiling Point": "119-129 \u00b0C @ Press: 29 Torr", "Melting Point": "82 \u00b0C"}}