{"cas_no": "98-56-6", "cn_name": "\u5bf9\u6c2f\u4e09\u6c1f\u7532\u82ef", "en_name": ["1-Chloro-4-(trifluoromethyl)benzene", "Benzene, 1-chloro-4-(trifluoromethyl)-", "Toluene, p-chloro-\u03b1,\u03b1,\u03b1-trifluoro-", "1-Chloro-4-(trifluoromethyl)benzene", "p-Chloro-\u03b1,\u03b1,\u03b1-trifluorotoluene", "p-Chlorobenzotrifluoride", "p-Chloro(trifluoromethyl)benzene", "p-Trifluoromethylphenyl chloride", "4-Chlorobenzotrifluoride", "(p-Chlorophenyl)trifluoromethane", "4-Chloro-\u03b1,\u03b1,\u03b1-trifluorotoluene", "p-(Trifluoromethyl)chlorobenzene", "4-(Trifluoromethyl)chlorobenzene", "4-Chloro(trifluoromethyl)benzene", "4-Chlorobenzyltrifluoride", "Oxsol 100", "4-(Trifluoromethyl)phenyl chloride", "NSC 10309", "Oxol 100", "4-Trifluoromethyl-1-chlorobenzene", "4-Chloro-1-trifluoromethylbenzene", "4-Chloro-\u03b1,\u03b1,\u03b1-benzotrifluoride", "Oxsul 100"], "SMILES": "C(F)(F)(F)C1=CC=C(Cl)C=C1", "physical_data": {"Molecular Weight": "180.55", "Molecular Formula": "C7H4ClF3", "Boiling Point": "139.3 \u00b0C", "Melting Point": "-33 \u00b0C", "Density": "1.3340 g/cm\u00b3 @ Temp: 25 \u00b0C"}}