{"cas_no": "98-53-3", "cn_name": "4-\u53d4\u4e01\u57fa\u73af\u5df1\u916e", "en_name": ["4-tert-Butylcyclohexanone", "Cyclohexanone, 4-(1,1-dimethylethyl)-", "Cyclohexanone, 4-tert-butyl-", "4-(1,1-Dimethylethyl)cyclohexanone", "C 64", "\u03b3-tert-Butylcyclohexanone", "4-tert-Butylcyclohexanone", "p-tert-Butylcyclohexanone", "NSC 73717"], "SMILES": "C(C)(C)(C)C1CCC(=O)CC1", "physical_data": {"Molecular Weight": "154.25", "Molecular Formula": "C10H18O", "Boiling Point": "106-108 \u00b0C @ Press: 18 Torr", "Melting Point": "49-50 \u00b0C"}}