{"cas_no": "98-51-1", "cn_name": "4-\u53d4\u4e01\u57fa\u7532\u82ef", "en_name": ["4-tert-Butyltoluene", "Benzene, 1-(1,1-dimethylethyl)-4-methyl-", "Toluene, p-tert-butyl-", "1-(1,1-Dimethylethyl)-4-methylbenzene", "p-tert-Butyltoluene", "1-tert-Butyl-4-methylbenzene", "4-Methyl-tert-butylbenzene", "1-Methyl-4-tert-butylbenzene", "4-tert-Butyltoluene", "4-tert-Butyl-1-methylbenzene", "p-Methyl-tert-butylbenzene", "NSC 6589", "1-Methyl-4-(1,1-dimethylethyl)benzene"], "SMILES": "C(C)(C)(C)C1=CC=C(C)C=C1", "physical_data": {"Molecular Weight": "148.24", "Molecular Formula": "C11H16", "Boiling Point": "193 \u00b0C @ Press: 760 Torr", "Melting Point": "-52 \u00b0C", "Density": "0.8612 g/cm\u00b3 @ Temp: 20 \u00b0C"}}