{"cas_no": "98-50-0", "cn_name": "\u963f\u6563\u9178", "en_name": ["Arsanilic acid", "Arsonic acid, As-(4-aminophenyl)-", "Arsanilic acid", "Arsonic acid, (4-aminophenyl)-", "As-(4-Aminophenyl)arsonic acid", "p-Aminobenzenearsonic acid", "Aminophenylarsine acid", "p-Anilinearsonic acid", "Atoxylic acid", "Arsanilic Acid 100", "Pro-gen 227 Premix", "p-Arsanilic acid", "4-Aminobenzenearsonic acid", "(p-Aminophenyl)arsonic acid", "4-Arsanilic acid", "AS 101", "Pro-gen", "4-Arsonoaniline", "Pro-gen 90", "4-Aminophenylarsonic acid", "p-Arsonoaniline", "NSC 2023", "MeSH ID: D001147"], "SMILES": "[As](=O)(O)(O)C1=CC=C(N)C=C1", "physical_data": {"Molecular Weight": "217.05", "Molecular Formula": "C6H8AsNO3", "Melting Point": "232 \u00b0C", "Density": "1.9571 g/cm\u00b3 @ Temp: 10 \u00b0C"}}