{"cas_no": "98-58-8", "cn_name": "4-\u6eb4\u82ef\u78fa\u9170\u6c2f", "en_name": ["4-Bromobenzenesulfonyl chloride", "Benzenesulfonyl chloride, 4-bromo-", "Benzenesulfonyl chloride, p-bromo-", "4-Bromobenzenesulfonyl chloride", "p-Bromobenzenesulfonyl chloride", "p-Bromophenylsulfonyl chloride", "Brosyl chloride", "p-Brosyl chloride", "4-Bromophenylsulfonyl chloride", "(4-Bromophenyl)chlorosulfone", "NSC 4506", "4-Bromobenzene-1-sulfonyl chloride", "4\u2032-Bromobenzenesulfonyl chloride", "4-Bromo-phenylsulphonylchloride"], "SMILES": "S(Cl)(=O)(=O)C1=CC=C(Br)C=C1", "physical_data": {"Molecular Weight": "255.52", "Molecular Formula": "C6H4BrClO2S", "Boiling Point": "180 \u00b0C @ Press: 30 Torr", "Melting Point": "76 \u00b0C"}}