{"cas_no": "98-54-4", "cn_name": "4-\u53d4\u4e01\u57fa\u82ef\u915a", "en_name": ["4-tert-Butylphenol", "Phenol, 4-(1,1-dimethylethyl)-", "Phenol, p-tert-butyl-", "4-(1,1-Dimethylethyl)phenol", "Butylphen", "p-tert-Butylphenol", "4-tert-Butylphenol", "PTBP", "NSC 3697", "B 110666"], "SMILES": "C(C)(C)(C)C1=CC=C(O)C=C1", "physical_data": {"Molecular Weight": "150.22", "Molecular Formula": "C10H14O", "Boiling Point": "237 \u00b0C", "Melting Point": "98 \u00b0C", "Density": "0.9 g/cm\u00b3"}}