{"cas_no": "98-57-7", "cn_name": "4-\u6c2f\u82ef\u57fa\u7532\u57fa\u781c", "en_name": ["1-Chloro-4-(methylsulfonyl)benzene", "Benzene, 1-chloro-4-(methylsulfonyl)-", "Sulfone, p-chlorophenyl methyl", "1-Chloro-4-(methylsulfonyl)benzene", "p-Chlorophenyl methyl sulfone", "4-Chlorophenyl methyl sulfone", "Methyl 4-chlorophenyl sulfone", "Methyl p-chlorophenyl sulfone", "(4-Chlorophenylsulfonyl)methane", "4-(Methylsulfonyl)phenyl chloride", "NSC 74456", "4-Methylsulfonylbenzene chloride", "1-Chloro-4-methanesulfonylbenzene"], "SMILES": "S(C)(=O)(=O)C1=CC=C(Cl)C=C1", "physical_data": {"Molecular Weight": "190.65", "Molecular Formula": "C7H7ClO2S", "Melting Point": "96 \u00b0C"}}