{"cas_no": "98-59-9", "cn_name": "\u5bf9\u7532\u82ef\u78fa\u9170\u6c2f", "en_name": ["Tosyl chloride", "Benzenesulfonyl chloride, 4-methyl-", "p-Toluenesulfonyl chloride", "4-Methylbenzenesulfonyl chloride", "p-Methylbenzenesulfonyl chloride", "Tosyl chloride", "p-Toluenesulfochloride", "p-Tosyl chloride", "p-Tolylsulfonyl chloride", "4-Toluenesulfonyl chloride", "Toluenesulfonyl chloride", "p-Toluenesulfonic acid chloride", "p-Methylphenylsulfonyl chloride", "4-Tosyl chloride", "p-Toluenesulfonic chloride", "4-Methylphenylsulfonyl chloride", "NSC 175822", "4-Toluolsulfonyl chloride", "4-Methylbenzene-1-sulfonyl chloride", "4-Methylbenzenesulphonyl chloride"], "SMILES": "S(Cl)(=O)(=O)C1=CC=C(C)C=C1", "physical_data": {"Molecular Weight": "190.65", "Molecular Formula": "C7H7ClO2S", "Boiling Point": "146 \u00b0C @ Press: 15 Torr", "Melting Point": "69-71 \u00b0C"}}