{"cas_no": "98-55-5", "cn_name": "\u03b1-\u677e\u6cb9\u9187", "en_name": ["\u03b1-Terpineol", "3-Cyclohexene-1-methanol, \u03b1,\u03b1,4-trimethyl-", "p-Menth-1-en-8-ol", "\u03b1,\u03b1,4-Trimethyl-3-cyclohexene-1-methanol", "\u03b1-Terpineol", "1-p-Menthen-8-ol", "Terpineol 350", "2-(4-Methyl-3-cyclohexenyl)-2-propanol", "8-Hydroxy-p-menth-1-ene", "PC 593", "dl-\u03b1-Terpineol", "(\u00b1)-\u03b1-Terpineol", "NSC 21449", "NSC 403665", "4-(2-Hydroxy-2-propyl)-1-methylcyclohexene", "Pine Oil 593", "1,1-Dimethyl-1-(4-methylcyclohex-3-enyl)methanol", "Mil 350", "2-(4-Methylcyclohex-3-en-1-yl)propan-2-ol"], "SMILES": "C(C)(C)(O)C1CCC(C)=CC1", "physical_data": {"Molecular Weight": "154.25", "Molecular Formula": "C10H18O", "Boiling Point": "218-221 \u00b0C @ Press: 764 Torr", "Melting Point": "35-40 \u00b0C", "Density": "0.935 g/cm\u00b3 @ Temp: 20 \u00b0C"}}