{"cas_no": "98-68-0", "cn_name": "\u5bf9\u7532\u6c27\u57fa\u82ef\u78fa\u9170\u6c2f", "en_name": ["4-Methoxybenzenesulfonyl chloride", "Benzenesulfonyl chloride, 4-methoxy-", "Benzenesulfonyl chloride, p-methoxy-", "4-Methoxybenzenesulfonyl chloride", "p-Methoxybenzenesulfonyl chloride", "p-Anisylsulfonyl chloride", "p-Methoxyphenylsulfonyl chloride", "4-Methoxyphenylsulfonyl chloride", "4-Methoxybenzenesulfonic acid chloride", "NSC 403292", "4-(Methyloxy)benzenesulfonyl chloride", "4-Methoxybenzene-1-sulfonyl chloride", "4-Methoxybenzensulfonyl chloride", "4-Methoxybezenesulfonyl chloride"], "SMILES": "S(Cl)(=O)(=O)C1=CC=C(OC)C=C1", "physical_data": {"Molecular Weight": "206.65", "Molecular Formula": "C7H7ClO3S", "Boiling Point": "103-105 \u00b0C @ Press: 0.25 Torr", "Melting Point": "41 \u00b0C"}}