{"cas_no": "98-61-3", "cn_name": "4-\u7898\u82ef\u78fa\u9170\u6c2f", "en_name": ["4-Iodobenzenesulfonyl chloride", "Benzenesulfonyl chloride, 4-iodo-", "Benzenesulfonyl chloride, p-iodo-", "4-Iodobenzenesulfonyl chloride", "p-Iodobenzenesulfonyl chloride", "p-Iodophenylsulfonyl chloride", "Pipsyl chloride", "4-Iodophenylsulfonyl chloride", "NSC 77079"], "SMILES": "S(Cl)(=O)(=O)C1=CC=C(I)C=C1", "physical_data": {"Molecular Weight": "302.52", "Molecular Formula": "C6H4ClIO2S", "Melting Point": "85 \u00b0C"}}