{"cas_no": "98-60-2", "cn_name": "4-\u6c2f\u82ef\u78fa\u9170\u6c2f", "en_name": ["4-Chlorobenzenesulfonyl chloride", "Benzenesulfonyl chloride, 4-chloro-", "Benzenesulfonyl chloride, p-chloro-", "4-Chlorobenzenesulfonyl chloride", "p-Chlorobenzenesulfonyl chloride", "p-Chlorophenylsulfonyl chloride", "4-Chlorophenylsulfonyl chloride", "NSC 6956", "4-Chlorobenzene-1-sulfonyl chloride"], "SMILES": "S(Cl)(=O)(=O)C1=CC=C(Cl)C=C1", "physical_data": {"Molecular Weight": "211.07", "Molecular Formula": "C6H4Cl2O2S", "Boiling Point": "141 \u00b0C @ Press: 15 Torr", "Melting Point": "55 \u00b0C"}}