{"cas_no": "98-66-8", "cn_name": "4-\u6c2f\u82ef\u78fa\u9178", "en_name": ["4-Chlorobenzenesulfonic acid", "Benzenesulfonic acid, 4-chloro-", "Benzenesulfonic acid, p-chloro-", "4-Chlorobenzenesulfonic acid", "p-Chlorobenzenesulfonic acid", "p-Chlorophenylsulfonic acid", "Benzene-1-chloro-4-sulfonic acid", "NSC 9914"], "SMILES": "S(=O)(=O)(O)C1=CC=C(Cl)C=C1", "physical_data": {"Molecular Weight": "192.62", "Molecular Formula": "C6H5ClO3S", "Melting Point": "67 \u00b0C"}}