{"cas_no": "98-64-6", "cn_name": "4-\u6c2f\u82ef\u78fa\u9170\u80fa", "en_name": ["4-Chlorobenzenesulfonamide", "Benzenesulfonamide, 4-chloro-", "Benzenesulfonamide, p-chloro-", "4-Chlorobenzenesulfonamide", "p-Chlorobenzenesulfonamide", "4-Chlorophenylsulfonamide", "p-Chlorobenzenesulfamide", "p-Chlorophenylsulfonamide", "ADD 55051", "NSC 403674", "NSC 9913", "4-Chlorobenzezne sulfonamide"], "SMILES": "S(N)(=O)(=O)C1=CC=C(Cl)C=C1", "physical_data": {"Molecular Weight": "191.64", "Molecular Formula": "C6H6ClNO2S", "Melting Point": "145.75 \u00b0C"}}