{"cas_no": "98-67-9", "cn_name": "4-\u7f9f\u57fa\u82ef\u78fa\u9178", "en_name": ["4-Hydroxybenzenesulfonic acid", "Benzenesulfonic acid, 4-hydroxy-", "Benzenesulfonic acid, p-hydroxy-", "4-Hydroxybenzenesulfonic acid", "p-Hydroxybenzenesulfonic acid", "p-Phenolsulfonic acid", "4-Phenolsulfonic acid", "p-Sulfophenol", "4-Hydroxyphenylsulfonic acid", "NSC 227908"], "SMILES": "S(=O)(=O)(O)C1=CC=C(O)C=C1", "physical_data": {"Molecular Weight": "174.17", "Molecular Formula": "C6H6O4S", "Melting Point": "52 \u00b0C", "Density": "1.337 g/cm\u00b3"}}