{"cas_no": "98-62-4", "cn_name": "4-\u6c28\u57fa\u82ef\u78fa\u9170\u6c1f", "en_name": ["4-Aminobenzenesulfonyl fluoride", "Benzenesulfonyl fluoride, 4-amino-", "Sulfanilyl fluoride", "4-Aminobenzenesulfonyl fluoride", "p-Aminobenzenesulfonyl fluoride", "p-Sulfanilyl fluoride", "(p-Fluorosulfonyl)aniline", "4-(Fluorosulfonyl)aniline", "NSC 95411"], "SMILES": "S(F)(=O)(=O)C1=CC=C(N)C=C1", "physical_data": {"Molecular Weight": "175.18", "Molecular Formula": "C6H6FNO2S", "Melting Point": "68.5 \u00b0C"}}