{"cas_no": "98-78-2", "cn_name": "3-\u6c27\u4ee3-1-\u73af\u620a\u70f7\u7fa7\u9178", "en_name": ["3-Oxocyclopentanecarboxylic acid", "Cyclopentanecarboxylic acid, 3-oxo-", "3-Oxocyclopentanecarboxylic acid", "Cyclopentanone-3-carboxylic acid", "NSC 19869", "3-Ketocyclopentylcarboxylic acid", "3-Oxocyclopentane-1-carboxylic acid", "3-Carboxycyclopentanone"], "SMILES": "C(O)(=O)C1CC(=O)CC1", "physical_data": {"Molecular Weight": "128.13", "Molecular Formula": "C6H8O3", "Boiling Point": "178-180 \u00b0C @ Press: 17 Torr", "Melting Point": "65 \u00b0C"}}