{"cas_no": "98-77-1", "cn_name": "\u6a61\u80f6\u4fc3\u8fdb\u5242 PPD", "en_name": ["1-Piperidinecarbodithioic acid, compd. with piperidine (1:1)", "1-Piperidinecarbodithioic acid, compd. with piperidine (1:1)", "1-Piperidinecarbodithioic acid, compd. with piperidine", "1-Piperidinecarbodithioic acid, piperidine salt", "Piperidine, 1-piperidinecarbodithioate", "Piperidinium N,N-pentamethylenedithiocarbamate", "Piperidinium piperidinedithiocarbamate", "PMP", "PMP (accelerator)", "Piperidinium 1-piperidinecarbodithioate", "Accelerator 552", "Pentamethylenedithiocarbamic acid piperidine salt", "Nocceler PPD", "NSC 1906", "NSC 4712", "Accel PP", "Pipecolinium pipecolyldithiocarbamate"], "SMILES": "C(=S)(S)N1CCCCC1.C1CCNCC1", "physical_data": {"Molecular Weight": "", "Molecular Formula": "C6H11NS2.C5H11N", "Melting Point": "172-173 \u00b0C"}}