{"cas_no": "98-73-7", "cn_name": "\u5bf9\u53d4\u4e01\u57fa\u82ef\u7532\u9178", "en_name": ["4-tert-Butylbenzoic acid", "Benzoic acid, 4-(1,1-dimethylethyl)-", "Benzoic acid, p-tert-butyl-", "4-(1,1-Dimethylethyl)benzoic acid", "4-tert-Butylbenzoic acid", "p-tert-Butylbenzoic acid", "p-t-Butylbenzoic acid", "p-tert-Butylphenylcarboxylic acid", "NSC 4802", "4-t-Butylbenzoic acid", "4-Tertiary-butylbenzoic acid"], "SMILES": "C(C)(C)(C)C1=CC=C(C(O)=O)C=C1", "physical_data": {"Molecular Weight": "178.23", "Molecular Formula": "C11H14O2", "Melting Point": "164.5-165.5 \u00b0C"}}