{"cas_no": "98-74-8", "cn_name": "\u5bf9\u785d\u57fa\u82ef\u78fa\u9170\u6c2f", "en_name": ["4-Nitrobenzenesulfonyl chloride", "Benzenesulfonyl chloride, 4-nitro-", "Benzenesulfonyl chloride, p-nitro-", "4-Nitrobenzenesulfonyl chloride", "p-Nitrobenzenesulfonyl chloride", "p-Nitrophenylsulfonyl chloride", "4-Nitrophenylsulfonyl chloride", "4-Nitrobenzenesulfonic acid chloride", "Nosyl chloride", "NSC 13065", "NSC 9572", "4-Nitrobenzene-1-sulfonyl chloride", "4-Nitrophenyl-1-sulfonyl chloride", "p-Nosyl chloride"], "SMILES": "S(Cl)(=O)(=O)C1=CC=C(N(=O)=O)C=C1", "physical_data": {"Molecular Weight": "221.62", "Molecular Formula": "C6H4ClNO4S", "Boiling Point": "108-110 \u00b0C @ Press: 2 x 10<sup>-4</sup> Torr", "Melting Point": "78 \u00b0C"}}