{"cas_no": "98-79-3", "cn_name": "L-\u7126\u8c37\u6c28\u9178", "en_name": ["L-Pyroglutamic acid", "L-Proline, 5-oxo-", "Proline, 5-oxo-, L-", "5-Oxo-L-proline", "L-5-Carboxy-2-pyrrolidinone", "L-Pyroglutamic acid", "L-Pyrrolidonecarboxylic acid", "L-Pyrrolidinonecarboxylic acid", "L-5-Oxoproline", "(-)-Pyroglutamic acid", "Glutimic acid", "Glutiminic acid", "(S)-(-)-\u03b3-Butyrolactam-\u03b3-carboxylic acid", "2-Pyrrolidinone-5-carboxylic acid", "Pyroglutamic acid", "Oxoproline", "Pyrrolidinonecarboxylic acid", "5-Oxoproline", "Pyrrolidonecarboxylic acid", "Pyrrolidone-5-carboxylic acid", "L-2-Pyrrolidone-5-carboxylic acid", "5-Pyrrolidinone-2-carboxylic acid", "L-5-Oxo-2-pyrrolidinecarboxylic acid", "5-Carboxy-2-pyrrolidinone", "L-Glutamic acid, \u03b3-lactam", "PCA", "Ajidew A 100", "2-L-Pyrrolidone-5-carboxylic acid", "L-Glutimic acid", "L-Glutiminic acid", "(S)-Pyroglutamic acid", "(S)-5-Oxo-2-pyrrolidinecarboxylic acid", "Pidolic acid", "(-)-2-Pyrrolidone-5-carboxylic acid", "(5S)-2-Oxopyrrolidine-5-carboxylic acid", "(S)-(-)-2-Pyrrolidone-5-carboxylic acid", "(S)-2-Pyrrolidone-5-carboxylic acid", "Pidolidone", "2-Oxopyrrolidine-5(S)-carboxylic acid", "Oxopyrrolidinecarboxylic acid", "NSC 143034", "(2S)-5-Oxopyrrolidine-2-carboxylic acid", "PCA 50", "(S)-5-Oxoproline", "L-(-)-Pyroglutamic acid", "(S)-5-Oxo-1H-pyrrolidine-2-carboxylic acid", "Pyroglutamine", "L-Pyroglutamine", "Take Off Booster", "VLS 3000-01", "163: PN: US20220128567 SEQID: 525 claimed sequence", "163: PN: US20220178935 SEQID: 525 claimed sequence"], "SMILES": "C(O)(=O)C1NC(=O)CC1", "physical_data": {"Molecular Weight": "129.11", "Molecular Formula": "C5H7NO3", "Melting Point": "184.7 \u00b0C"}}