{"cas_no": "98-71-5", "cn_name": "4-\u80bc\u57fa\u82ef\u78fa\u9178", "en_name": ["4-Hydrazinobenzenesulfonic acid", "Benzenesulfonic acid, 4-hydrazinyl-", "Benzenesulfonic acid, p-hydrazino-", "Benzenesulfonic acid, 4-hydrazino-", "4-Hydrazinylbenzenesulfonic acid", "p-Hydrazinobenzenesulfonic acid", "p-Sulfophenylhydrazine", "Phenylhydrazine-p-sulfonic acid", "4-Sulfophenylhydrazine", "Phenylhydrazine-4-sulfonic acid", "4-Hydrazinobenzenesulfonic acid", "p-Hydrazinophenylsulfonic acid", "NSC 1608", "Sulfanilic acid hydrazine"], "SMILES": "S(=O)(=O)(O)C1=CC=C(NN)C=C1", "physical_data": {"Molecular Weight": "188.20", "Molecular Formula": "C6H8N2O3S", "Melting Point": "286 \u00b0C"}}