{"cas_no": "98-72-6", "cn_name": "\u5bf9\u785d\u57fa\u82ef\u80c2\u9178", "en_name": ["Nitarsone", "Arsonic acid, As-(4-nitrophenyl)-", "Benzenearsonic acid, p-nitro-", "Arsonic acid, (4-nitrophenyl)-", "As-(4-Nitrophenyl)arsonic acid", "Nitarsone", "p-Nitrobenzenearsonic acid", "(4-Nitrophenyl)arsonic acid", "4-Nitrobenzenearsonic acid", "(p-Nitrophenyl)arsonic acid", "Histostat 50", "Hep-a-Stat", "Histostat", "Nitarson", "NSC 5085", "p-Nitrophenyl arsenic acid"], "SMILES": "[As](=O)(O)(O)C1=CC=C(N(=O)=O)C=C1", "physical_data": {"Molecular Weight": "247.04", "Molecular Formula": "C6H6AsNO5", "Melting Point": "&gt;310 \u00b0C (decomp)"}}