{"cas_no": "98-83-9", "cn_name": "2-\u82ef\u57fa-1-\u4e19\u70ef", "en_name": ["\u03b1-Methylstyrene", "Benzene, (1-methylethenyl)-", "Styrene, \u03b1-methyl-", "Benzene, isopropenyl-", "(1-Methylethenyl)benzene", "Isopropenylbenzene", "\u03b1-Methylstyrene", "\u03b2-Phenylpropylene", "1-Propene, 2-phenyl-", "\u03b1-Methylstyrol", "1-Methyl-1-phenylethylene", "1-Phenyl-1-methylethylene", "2-Phenylpropene", "2-Phenyl-1-propene", "2-Phenyl-2-propene", "Methylstyrene", "1-Methyl-1-phenylethene", "1-Methylvinyl benzene", "NSC 9400", "\u03b1-Methylvinylbenzene", "2-Phenylpropylene", "2-Phenyl-1-propylene", "Prop-1-en-2-ylbenzene", "K 150 (styrene)"], "SMILES": "C(C)(=C)C1=CC=CC=C1", "physical_data": {"Molecular Weight": "118.18", "Molecular Formula": "C9H10", "Boiling Point": "165.4 \u00b0C", "Melting Point": "-23.2 \u00b0C", "Density": "0.9106 g/cm\u00b3"}}