{"cas_no": "98-87-3", "cn_name": "ALPHA,ALPHA-\u4e8c\u6c2f\u7532\u82ef(\u4e8c\u6c2f\u7532\u82ef)", "en_name": ["Benzal chloride", "Benzene, (dichloromethyl)-", "Toluene, \u03b1,\u03b1-dichloro-", "(Dichloromethyl)benzene", "Benzal chloride", "Benzyl dichloride", "Benzylene chloride", "Benzylidene chloride", "\u03b1,\u03b1-Dichlorotoluene", "Dichlorophenylmethane", "NSC 7915"], "SMILES": "C(Cl)(Cl)C1=CC=CC=C1", "physical_data": {"Molecular Weight": "161.03", "Molecular Formula": "C7H6Cl2", "Boiling Point": "205 \u00b0C", "Melting Point": "-16.4 \u00b0C", "Density": "1.26 g/cm\u00b3"}}