{"cas_no": "98-85-1", "cn_name": "\u82cf\u5408\u9999\u9187", "en_name": ["1-Phenylethanol", "Benzenemethanol, \u03b1-methyl-", "Benzyl alcohol, \u03b1-methyl-", "\u03b1-Methylbenzenemethanol", "Ethanol, 1-phenyl-", "Methylphenylcarbinol", "\u03b1-Phenethyl alcohol", "1-Phenylethanol", "Phenylmethylcarbinol", "Styralyl alcohol", "\u03b1-Methylbenzyl alcohol", "\u03b1-Phenylethyl alcohol", "1-Phenyl-1-hydroxyethane", "(1-Hydroxyethyl)benzene", "\u03b1-Phenylethanol", "1-Phenethyl alcohol", "1-Phenylethyl alcohol", "1-Phenyl-1-ethanol", "Styrallyl alcohol", "sec-Phenethyl alcohol", "\u03b1-Hydroxyethylbenzene", "DL-Methyl phenyl carbinol", "(RS)-1-Phenylethanol", "(\u00b1)-1-Phenylethanol", "DL-\u03b1-Phenylethyl alcohol", "dl-1-Phenylethanol", "Synthacolin", "(\u00b1)-\u03b1-Phenylethanol", "(\u00b1)-\u03b1-Methylbenzyl alcohol", "(\u00b1)-1-Phenylethyl alcohol", "(RS)-\u03b1-Phenylethanol", "(\u00b1)-\u03b1-Methylbenzenemethanol", "(\u00b1)-\u03b1-Phenethyl alcohol", "(\u00b1)-sec-Phenethyl alcohol", "(RS)-sec-Phenethyl alcohol", "(\u00b1)-sec-Phenylethanol", "1-Hydroxy-1-phenylethane", "\u03b1-Methylphenylmethanol", "NSC 25502", "1-Phenylethane-1-ol"], "SMILES": "C(C)(O)C1=CC=CC=C1", "physical_data": {"Molecular Weight": "122.16", "Molecular Formula": "C8H10O", "Boiling Point": "204 \u00b0C", "Melting Point": "20.7 \u00b0C", "Density": "1.013 g/cm\u00b3 @ Temp: 25 \u00b0C"}}