{"cas_no": "98-86-2", "cn_name": "\u82ef\u4e59\u916e", "en_name": ["Acetophenone", "Ethanone, 1-phenyl-", "Acetophenone", "1-Phenylethanone", "Acetylbenzene", "Hypnone", "Methyl phenyl ketone", "Phenyl methyl ketone", "Acetophenon", "Hypnon", "1-Phenyl-1-ethanone", "NSC 98542", "NSC 7635", "1-Feniletanone", "Benzoylmethane"], "SMILES": "C(C)(=O)C1=CC=CC=C1", "physical_data": {"Molecular Weight": "120.15", "Molecular Formula": "C8H8O", "Boiling Point": "202 \u00b0C", "Melting Point": "20.5 \u00b0C", "Density": "1.033 g/cm\u00b3 @ Temp: 15 \u00b0C"}}