{"cas_no": "98-89-5", "cn_name": "\u73af\u5df1\u7532\u9178", "en_name": ["Cyclohexanecarboxylic acid", "Cyclohexanecarboxylic acid", "Benzoic acid, hexahydro-", "Hexahydrobenzoic acid", "Cyclohexanoic acid", "Cyclohexylcarboxylic acid", "Carboxycyclohexane", "Cyclohexylmethanoic acid", "NSC 452", "NSC 97391", "NSC 97393", "Cyclohexyl formic acid"], "SMILES": "C(O)(=O)C1CCCCC1", "physical_data": {"Molecular Weight": "128.17", "Molecular Formula": "C7H12O2", "Boiling Point": "232.5 \u00b0C", "Melting Point": "31.5 \u00b0C", "Density": "0.9866 g/cm\u00b3 @ Temp: 80.8 \u00b0C"}}