{"cas_no": "98-82-8", "cn_name": "\u5f02\u4e19\u57fa\u82ef", "en_name": ["Cumene", "Benzene, (1-methylethyl)-", "Cumene", "(1-Methylethyl)benzene", "Cumol", "Isopropylbenzene", "2-Phenylpropane", "NSC 8776", "i-Propylbenzene"], "SMILES": "C(C)(C)C1=CC=CC=C1", "physical_data": {"Molecular Weight": "120.19", "Molecular Formula": "C9H12", "Boiling Point": "152.4 \u00b0C @ Press: 760 Torr", "Melting Point": "-96.0 \u00b0C", "Density": "0.862 g/cm\u00b3 @ Temp: 20 \u00b0C"}}