{"cas_no": "98-81-7", "cn_name": "alpha- \u6eb4\u82ef\u4e59\u70ef", "en_name": ["\u03b1-Bromostyrene", "Benzene, (1-bromoethenyl)-", "Styrene, \u03b1-bromo-", "(1-Bromoethenyl)benzene", "\u03b1-Bromostyrene", "1-Bromo-1-phenylethylene", "1-Bromostyrene", "1-Bromo-1-phenylethene", "1-Phenylvinyl bromide", "(1-Bromovinyl)benzene"], "SMILES": "C(Br)(=C)C1=CC=CC=C1", "physical_data": {"Molecular Weight": "183.05", "Molecular Formula": "C8H7Br", "Boiling Point": "110-112 \u00b0C @ Press: 35 Torr", "Melting Point": "-44 \u00b0C", "Density": "1.425 g/cm\u00b3 @ Temp: 17 \u00b0C"}}