{"cas_no": "98-88-4", "cn_name": "\u82ef\u7532\u9170\u6c2f", "en_name": ["Benzoyl chloride", "Benzoyl chloride", "Benzaldehyde, \u03b1-chloro-", "Benzenecarbonyl chloride", "Benzoic acid chloride", "Phenylcarbonyl chloride", "B 0105", "Phenylcarboxyl chloride", "Benzoylchloride"], "SMILES": "C(Cl)(=O)C1=CC=CC=C1", "physical_data": {"Molecular Weight": "140.57", "Molecular Formula": "C7H5ClO", "Boiling Point": "197.2 \u00b0C @ Press: 760 Torr", "Melting Point": "-1.0 \u00b0C", "Density": "1.2070 g/cm\u00b3 @ Temp: 25 \u00b0C"}}