{"cas_no": "98-80-6", "cn_name": "\u82ef\u787c\u9178", "en_name": ["Phenylboronic acid", "Boronic acid, B-phenyl-", "Benzeneboronic acid", "Boronic acid, phenyl-", "Boric acid, phenyl-", "B-Phenylboronic acid", "Phenylboronic acid", "Dihydroxyphenylborane", "Phenyldihydroxyborane", "NSC 66487"], "SMILES": "B(O)(O)C1=CC=CC=C1", "physical_data": {"Molecular Weight": "121.93", "Molecular Formula": "C6H7BO2", "Melting Point": "219 \u00b0C"}}