{"cas_no": "98-97-5", "cn_name": "2-\u7532\u9178\u5421\u55ea", "en_name": ["2-Pyrazinecarboxylic acid", "2-Pyrazinecarboxylic acid", "Pyrazinoic acid", "Pyrazinecarboxylic acid", "1,4-Diazinecarboxylic acid", "2-Pyrazinoic acid", "Pyrazinic acid", "2-Carboxypyrazine", "NSC 13146", "NSC 27192"], "SMILES": "C(O)(=O)C=1C=NC=CN1", "physical_data": {"Molecular Weight": "124.10", "Molecular Formula": "C5H4N2O2", "Melting Point": "225 \u00b0C (decomp)"}}