{"cas_no": "98-95-3", "cn_name": "\u785d\u57fa\u82ef", "en_name": ["Nitrobenzene", "Benzene, nitro-", "Nitrobenzene", "Essence of Mirbane", "Essence of Myrbane", "Mirbane oil", "Nitrobenzol", "Oil of Mirbane", "Oil of Myrbane", "NSC 9573", "1-Nitrobenzene"], "SMILES": "N(=O)(=O)C1=CC=CC=C1", "physical_data": {"Molecular Weight": "123.11", "Molecular Formula": "C6H5NO2", "Boiling Point": "210.8 \u00b0C", "Melting Point": "5.7 \u00b0C", "Density": "1.2037 g/cm\u00b3 @ Temp: 20 \u00b0C"}}