{"cas_no": "98-96-4", "cn_name": "\u5421\u55ea\u9170\u80fa", "en_name": ["Pyrazinamide", "2-Pyrazinecarboxamide", "Pyrazinecarboxamide", "D 50", "MK 56", "Aldinamid", "2-Carbamylpyrazine", "Eprazin", "Pyrazinamide", "Pyrazine carboxylamide", "Pyrazinoic acid amide", "Tebrazid", "Aldinamide", "Zinamide", "Unipyranamide", "Pyrazinecarboxylic acid amide", "Pirazinamid", "Novamid", "Pirazimida", "Farmizina", "Pyrafat", "2-Carboxamidopyrazine", "\u03b1-Pyrazinamide", "2-(Aminocarbonyl)pyrazine", "NSC 14911", "Pyrazide", "Isopas", "Rifafour e-200", "Rifcin", "Rozide", "Pyramizade", "MeSH ID: D011718"], "SMILES": "C(N)(=O)C=1C=NC=CN1", "physical_data": {"Molecular Weight": "123.11", "Molecular Formula": "C5H5N3O", "Melting Point": "192 \u00b0C", "Density": "1.4475 g/cm\u00b3"}}