{"cas_no": "98-92-0", "cn_name": "\u70df\u9170\u80fa", "en_name": ["Nicotinamide", "3-Pyridinecarboxamide", "Nicotinamide", "Aminicotin", "Benicot", "Delonin Amide", "Dipegyl", "NAM", "Niacinamide", "Nicamindon", "Nicofort", "Nicotilamide", "Nicotine acid amide", "Nicotinic acid amide", "Nicotinic amide", "Nicotylamide", "Niocinamide", "Niozymin", "Pelonin amide", "3-Pyridinecarboxylic acid amide", "Vi-Nicotyl", "Vitamin B3 (niacinamide)", "Vitamin B", "Nicosan 2", "3-Carbamoylpyridine", "Pelmine", "\u03b2-Pyridinecarboxamide", "Nicobion", "Nicosylamide", "Nicovit", "Niavit PP", "Nicovitina", "Nicamina", "Nicasir", "3-(Aminocarbonyl)pyridine", "m-(Aminocarbonyl)pyridine", "3-Amidopyridine", "Papulex", "Nictoamide", "Pelmin", "NSC 13128", "NSC 27452", "Vitamin B3 (nicotinamide)"], "SMILES": "C(N)(=O)C=1C=CC=NC1", "physical_data": {"Molecular Weight": "122.12", "Molecular Formula": "C6H6N2O", "Boiling Point": "157 \u00b0C @ Press: 5 x 10<sup>-4</sup> Torr", "Melting Point": "130 \u00b0C", "Density": "1.400 g/cm\u00b3 @ Temp: 25 \u00b0C"}}