{"cas_no": "98-91-9", "cn_name": "\u786b\u4ee3\u82ef\u7532\u9178", "en_name": ["Thiobenzoic acid", "Benzenecarbothioic acid", "Benzoic acid, thio-", "Benzoic acid, thiono-", "Thiobenzoic acid", "Benzoyl thiol", "Monothiobenzoic acid", "NSC 66502", "Benzothioic acid"], "SMILES": "C(=O)(S)C1=CC=CC=C1", "physical_data": {"Molecular Weight": "138.19", "Molecular Formula": "C7H6OS", "Boiling Point": "75 \u00b0C @ Press: 3 Torr", "Melting Point": "24 \u00b0C"}}