{"cas_no": "98-98-6", "cn_name": "2-\u5421\u5576\u7532\u9178", "en_name": ["Picolinic acid", "2-Pyridinecarboxylic acid", "Picolinic acid", "o-Pyridinecarboxylic acid", "2-Carboxypyridine", "\u03b1-Pyridinecarboxylic acid", "2-Pyridylcarboxylic acid", "NSC 171", "PCL 016", "Pyridine-2-carboxylic acid"], "SMILES": "C(O)(=O)C1=CC=CC=N1", "physical_data": {"Molecular Weight": "123.11", "Molecular Formula": "C6H5NO2", "Boiling Point": "115 \u00b0C @ Press: 5 Torr", "Melting Point": "136.5 \u00b0C", "Density": "1.49 g/cm\u00b3"}}