{"cas_no": "98-94-2", "cn_name": "N,N-\u4e8c\u7532\u57fa\u73af\u5df1\u80fa", "en_name": ["N,N-Dimethylcyclohexylamine", "Cyclohexanamine, N,N-dimethyl-", "Cyclohexylamine, N,N-dimethyl-", "N,N-Dimethylcyclohexanamine", "Cyclohexyldimethylamine", "(Dimethylamino)cyclohexane", "N-Cyclohexyldimethylamine", "Polycat 8", "N,N-Dimethylaminocyclohexane", "Toyocat DMCH", "Wondamine DMCA", "Wandamin DMCA", "Niax C 8", "PC CAT DMCHA", "N,N-Dimethylcyclohexylamine", "PC CAT NP 33R", "Kaolizer 10", "NSC 163904", "PC 8", "Kao 10", "SFC", "Jeffcat DMCHA", "DMCHA", "Y 12 (catalyst)", "Y 12", "Tegoamin DMCHA", "KL 10", "N-Cyclohexyl-N,N-dimethylamine", "Lupragen N 100", "DY 8", "PC 8 catalyst", "Dabco PC 8", "Desmorapid 726B", "Rubitherm LR 18412", "Niax PC 8", "Wanamine DMCHA"], "SMILES": "N(C)(C)C1CCCCC1", "physical_data": {"Molecular Weight": "127.23", "Molecular Formula": "C8H17N", "Boiling Point": "162-165 \u00b0C", "Melting Point": "-60 \u00b0C", "Density": "0.8490 g/cm\u00b3 @ Temp: 20 \u00b0C"}}