{"cas_no": "980-71-2", "cn_name": "\u9a6c\u6765\u9178\u6eb4\u82ef\u90a3\u654f", "en_name": ["(\u00b1)-Brompheniramine maleate", "2-Pyridinepropanamine, \u03b3-(4-bromophenyl)-N,N-dimethyl-, (2Z)-2-butenedioate (1:1)", "Pyridine, 2-[p-bromo-\u03b1-[2-(dimethylamino)ethyl]benzyl]-, maleate (1:1)", "2-Pyridinepropanamine, \u03b3-(4-bromophenyl)-N,N-dimethyl-, (Z)-2-butenedioate (1:1)", "2-[p-Bromo-\u03b1-[2-(dimethylamino)ethyl]benzyl]pyridine bimaleate", "2-[p-Bromo-\u03b1-(2-dimethylaminoethyl)benzyl]pyridine maleate", "Brompheniramine maleate", "Dimetane maleate", "Ilvin maleate", "Parabromdylamine maleate", "Parabromodylamine maleate", "Bromopheniramine maleate", "Dimotane", "Dimetane", "Brompheniramine hydrogen maleate", "dl-Bromopheniramine maleate", "(\u00b1)-Brompheniramine maleate", "dl-Brompheniramine maleate", "Lodrane", "Veltane", "Symptom 3", "Nagemid", "Allent", "Ilvin"], "SMILES": "C(CCN(C)C)(C1=CC=C(Br)C=C1)C2=CC=CC=N2.C(=CC(O)=O)C(O)=O", "physical_data": {"Molecular Weight": "", "Molecular Formula": "C16H19BrN2.C4H4O4", "Melting Point": "132-134 \u00b0C"}}