{"cas_no": "98079-52-8", "cn_name": "\u76d0\u9178\u6d1b\u7f8e\u6c99\u661f", "en_name": ["Lomefloxacin hydrochloride", "3-Quinolinecarboxylic acid, 1-ethyl-6,8-difluoro-1,4-dihydro-7-(3-methyl-1-piperazinyl)-4-oxo-, hydrochloride (1:1)", "3-Quinolinecarboxylic acid, 1-ethyl-6,8-difluoro-1,4-dihydro-7-(3-methyl-1-piperazinyl)-4-oxo-, monohydrochloride", "NY 198", "SC 47111", "Lomefloxacin hydrochloride", "Bareon", "Mazaquin", "Chimono", "Maxaquin", "Lomebact", "Uniquin", "Lomef 400", "Lomflox", "Lomitas", "Lomoxin", "Orchacin", "Alkaflox"], "SMILES": "C(C)N1C=2C(C(=O)C(C(O)=O)=C1)=CC(F)=C(C2F)N3CC(C)NCC3.Cl", "physical_data": {"Molecular Weight": "", "Molecular Formula": "C17H19F2N3O3.ClH", "Melting Point": "290-300 \u00b0C (decomp)"}}