{"cas_no": "98071-16-0", "cn_name": "1-\u6c28\u57fa-1-\u73af\u4e01\u57fa\u7fa7\u9178\u76d0\u9178\u76d0", "en_name": ["Cyclobutanecarboxylic acid, 1-amino-, hydrochloride (1:1)", "Cyclobutanecarboxylic acid, 1-amino-, hydrochloride (1:1)", "Cyclobutanecarboxylic acid, 1-amino-, hydrochloride", "1-Aminocyclobutanecarboxylic acid hydrochloride", "1-Aminocyclobutane-1-carboxylic acid hydrochloride"], "SMILES": "C(O)(=O)C1(N)CCC1.Cl", "physical_data": {"Molecular Weight": "", "Molecular Formula": "C5H9NO2.ClH", "Melting Point": "260-265 \u00b0C"}}