{"cas_no": "98079-51-7", "cn_name": "\u6d1b\u7f8e\u6c99\u661f", "en_name": ["Lomefloxacin", "3-Quinolinecarboxylic acid, 1-ethyl-6,8-difluoro-1,4-dihydro-7-(3-methyl-1-piperazinyl)-4-oxo-", "1-Ethyl-6,8-difluoro-1,4-dihydro-7-(3-methyl-1-piperazinyl)-4-oxo-3-quinolinecarboxylic acid", "Lomefloxacin", "SC 47111A", "DM 10", "1-Ethyl-6,8-difluoro-7-(3-methyl-1-piperazinyl)-4-oxo-1,4-dihydro-3-quinoline carboxylic acid", "DM 10 (bactericide)"], "SMILES": "C(C)N1C=2C(C(=O)C(C(O)=O)=C1)=CC(F)=C(C2F)N3CC(C)NCC3", "physical_data": {"Molecular Weight": "351.35", "Molecular Formula": "C17H19F2N3O3", "Melting Point": "239-240.5 \u00b0C"}}