{"cas_no": "98081-84-6", "cn_name": "6-\u6c2f\u5432\u54da-2-\u7532\u9178\u7532\u916f", "en_name": ["1H-Indole-2-carboxylic acid, 6-chloro-, methyl ester", "1H-Indole-2-carboxylic acid, 6-chloro-, methyl ester", "6-Chloro-2-methoxycarbonylindole", "Methyl 6-chloroindole-2-carboxylate", "Methyl 6-chloro-1H-indole-2-carboxylate"], "SMILES": "C(OC)(=O)C1=CC=2C(N1)=CC(Cl)=CC2", "physical_data": {"Molecular Weight": "209.63", "Molecular Formula": "C10H8ClNO2", "Melting Point": "176.8-178.5 \u00b0C"}}