{"cas_no": "981-34-0", "cn_name": "\u500d\u4ed6\u7c73\u677e\u73af\u6c27", "en_name": ["Betamethasone 9,11-epoxide", "Pregna-1,4-diene-3,20-dione, 9,11-epoxy-17,21-dihydroxy-16-methyl-, (9\u03b2,11\u03b2,16\u03b2)-", "9\u03b2-Pregna-1,4-diene-3,20-dione, 9,11\u03b2-epoxy-17,21-dihydroxy-16\u03b2-methyl-", "9,11-Epoxy-9H-cyclopenta[a]phenanthrene, pregna-1,4-diene-3,20-dione deriv.", "(9\u03b2,11\u03b2,16\u03b2)-9,11-Epoxy-17,21-dihydroxy-16-methylpregna-1,4-diene-3,20-dione", "9,11\u03b2-Epoxy-17,21-dihydroxy-16\u03b2-methyl-9\u03b2-pregna-1,4-diene-3,20-dione", "Betamethasone 9,11-epoxide"], "SMILES": "CC12C34C(C5C(C)(CC3O4)C(C(CO)=O)(O)C(C)C5)CCC1=CC(=O)C=C2", "physical_data": {"Molecular Weight": "372.45", "Molecular Formula": "C22H28O5", "Melting Point": "210-220 \u00b0C"}}