{"cas_no": "981-15-7", "cn_name": "\u81ed\u693f\u916e", "en_name": ["Ailanthone", "Picrasa-3,13(21)-diene-2,16-dione, 11,20-epoxy-1,11,12-trihydroxy-, (1\u03b2,11\u03b2,12\u03b1)-", "2H-1,11c-(Epoxymethano)phenanthro[10,1-bc]pyran-5,10(3H,6aH)-dione, 1,3a,4,7,7a,11,11a,11b-octahydro-1\u03b1,2\u03b2,11\u03b2-trihydroxy-8,11a\u03b2-dimethyl-3-methylene-", "Ailanthone", "(1\u03b2,11\u03b2,12\u03b1)-11,20-Epoxy-1,11,12-trihydroxypicrasa-3,13(21)-diene-2,16-dione", "\u039413-Dehydrochaparrinone", "13,21-Didehydrochaparrinone"], "SMILES": "CC12C3C45C(CC1C(C)=CC(=O)C2O)OC(=O)CC4C(=C)C(O)C3(O)OC5", "physical_data": {"Molecular Weight": "376.40", "Molecular Formula": "C20H24O7", "Melting Point": "235-237 \u00b0C"}}