{"cas_no": "98105-79-4", "cn_name": "7-\u6c2f-6-\u6c1f-1-\u5bf9\u6c1f\u82ef\u57fa-1,4-\u4e8c\u6c22-4-\u6c27\u4ee3-3-\u55b9\u5549\u7fa7\u9178", "en_name": ["7-Chloro-6-fluoro-1-(4-fluorophenyl)-1,4-dihydro-4-oxo-3-quinolinecarboxylic acid", "3-Quinolinecarboxylic acid, 7-chloro-6-fluoro-1-(4-fluorophenyl)-1,4-dihydro-4-oxo-", "7-Chloro-6-fluoro-1-(4-fluorophenyl)-1,4-dihydro-4-oxo-3-quinolinecarboxylic acid"], "SMILES": "C(O)(=O)C1=CN(C=2C(C1=O)=CC(F)=C(Cl)C2)C3=CC=C(F)C=C3", "physical_data": {"Molecular Weight": "335.69", "Molecular Formula": "C16H8ClF2NO3", "Melting Point": "260-263 \u00b0C"}}