{"cas_no": "98103-87-8", "cn_name": "(\u00b1)-2-\u82ef\u57fa-1-\u4e19\u9187", "en_name": ["2-Phenyl-1-propanol", "Benzeneethanol, \u03b2-methyl-", "Phenethyl alcohol, \u03b2-methyl-", "\u03b2-Methylbenzeneethanol", "Hydratropic alcohol", "Hydratropyl alcohol", "\u03b2-Phenylpropyl alcohol", "2-Phenyl-1-propanol", "\u03b2-Methylphenethyl alcohol", "2-Phenylpropyl alcohol", "1-Hydroxy-2-phenylpropane", "1-Propanol, 2-phenyl-", "2-Phenylpropanol", "(\u00b1)-2-Phenyl-1-propanol", "(\u00b1)-\u03b2-Methylbenzeneethanol", "NSC 5232", "(\u00b1)-2-Phenylpropanol", "(RS)-2-Phenyl-1-propanol"], "SMILES": "C(CO)(C)C1=CC=CC=C1", "physical_data": {"Molecular Weight": "136.19", "Molecular Formula": "C9H12O", "Boiling Point": "112-114 \u00b0C @ Press: 12 Torr", "Melting Point": "125-127 \u00b0C", "Density": "1.0070 g/cm\u00b3 @ Temp: 16 \u00b0C"}}