{"cas_no": "98106-17-3", "cn_name": "\u53cc\u6c1f\u6c99\u661f", "en_name": ["Difloxacin", "3-Quinolinecarboxylic acid, 6-fluoro-1-(4-fluorophenyl)-1,4-dihydro-7-(4-methyl-1-piperazinyl)-4-oxo-", "6-Fluoro-1-(4-fluorophenyl)-1,4-dihydro-7-(4-methyl-1-piperazinyl)-4-oxo-3-quinolinecarboxylic acid", "A 56619", "Difloxacin", "Dicural", "Difluoxacin", "Pulsaflox"], "SMILES": "O=C1C=2C(N(C=C1C(O)=O)C3=CC=C(F)C=C3)=CC(=C(F)C2)N4CCN(C)CC4", "physical_data": {"Molecular Weight": "399.39", "Molecular Formula": "C21H19F2N3O3", "Melting Point": "279-282 \u00b0C"}}