{"cas_no": "98105-99-8", "cn_name": "\u6c99\u62c9\u6c99\u661f", "en_name": ["Sarafloxacin", "3-Quinolinecarboxylic acid, 6-fluoro-1-(4-fluorophenyl)-1,4-dihydro-4-oxo-7-(1-piperazinyl)-", "6-Fluoro-1-(4-fluorophenyl)-1,4-dihydro-4-oxo-7-(1-piperazinyl)-3-quinolinecarboxylic acid", "A 56620", "Sarafloxacin", "PD 121960"], "SMILES": "O=C1C=2C(N(C=C1C(O)=O)C3=CC=C(F)C=C3)=CC(=C(F)C2)N4CCNCC4", "physical_data": {"Molecular Weight": "385.36", "Molecular Formula": "C20H17F2N3O3", "Melting Point": "282-285 \u00b0C"}}