{"cas_no": "98130-56-4", "cn_name": "2-\u6eb4-4,6-\u4e8c\u6c1f\u82ef\u915a", "en_name": ["2-Bromo-4,6-difluorophenol", "Phenol, 2-bromo-4,6-difluoro-", "2-Bromo-4,6-difluorophenol"], "SMILES": "OC1=C(Br)C=C(F)C=C1F", "physical_data": {"Molecular Weight": "208.99", "Molecular Formula": "C6H3BrF2O", "Boiling Point": "53 \u00b0C @ Press: 1 Torr"}}