{"cas_no": "98169-85-8", "cn_name": "\u5355-6-O-(\u53e0\u6c2e\u57fa)-\u0392-\u73af\u7cca\u7cbe", "en_name": ["6-Deoxy-6-azido-\u03b2-cyclodextrin", "\u03b2-Cyclodextrin, 6A-azido-6A-deoxy-", "2,4,7,9,12,14,17,19,22,24,27,29,32,34-Tetradecaoxaoctacyclo[31.2.2.23,6.28,11.213,16.218,21.223,26.228,31]nonatetracontane, \u03b2-cyclodextrin deriv.", "6A-Azido-6A-deoxy-\u03b2-cyclodextrin", "6-Azido-6-deoxycyclomaltoheptaose", "6-Deoxy-6-azido-\u03b2-cyclodextrin", "Mono-6-deoxy-6-azido-\u03b2-cyclodextrin", "6-Monoazido-\u03b2-cyclodextrin", "Mono(6-azido-6-desoxy)-\u03b2-cyclodextrin", "6-Monoazido-6-deoxy-\u03b2-cyclodextrin", "Mono-6A-azido-\u03b2-cyclodextrin", "6-Monoazido-6-monodeoxy-\u03b2-cyclodextrin"], "SMILES": "C(N=[N+]=[N-])C1C2OC3OC(CO)C(C(O)C3O)OC4OC(CO)C(C(O)C4O)OC5OC(CO)C(C(O)C5O)OC6OC(CO)C(OC7OC(CO)C(OC8OC(CO)C(OC(O1)C(O)C2O)C(O)C8O)C(O)C7O)C(O)C6O", "physical_data": {"Molecular Weight": "", "Molecular Formula": "C42H69N3O34", "Melting Point": "205 \u00b0C (decomp)"}}