{"cas_no": "98266-33-2", "cn_name": "Boc-3-(3-\u5421\u5576\u57fa)-D-\u4e19\u6c28\u9178", "en_name": ["(\u03b1R)-\u03b1-[[(1,1-Dimethylethoxy)carbonyl]amino]-3-pyridinepropanoic acid", "3-Pyridinepropanoic acid, \u03b1-[[(1,1-dimethylethoxy)carbonyl]amino]-, (\u03b1R)-", "3-Pyridinepropanoic acid, \u03b1-[[(1,1-dimethylethoxy)carbonyl]amino]-, (R)-", "(\u03b1R)-\u03b1-[[(1,1-Dimethylethoxy)carbonyl]amino]-3-pyridinepropanoic acid", "3-Pyridinepropanoic acid \u03b1-[[(1,1-dimethylethoxy)carbonyl]amino]-, (\u03b1R)-"], "SMILES": "C(CC=1C=CC=NC1)(NC(OC(C)(C)C)=O)C(O)=O", "physical_data": {"Molecular Weight": "266.29", "Molecular Formula": "C13H18N2O4", "Melting Point": "113-115 \u00b0C"}}