{"cas_no": "98298-66-9", "cn_name": "1-\u6c2f\u4e59\u57fa\u5f02\u4e19\u57fa\u78b3\u9178\u916f", "en_name": ["1-Chloroethyl 1-methylethyl carbonate", "Carbonic acid, 1-chloroethyl 1-methylethyl ester", "1-Chloroethyl 1-methylethyl carbonate", "1-Chloroethyl isopropyl carbonate", "\u03b1-Chloroethyl isopropyl carbonate", "Isopropyl 1-chloroethyl carbonate", "1-(Isopropyloxycarbonyloxy)ethyl chloride", "Carbonic acid 1-chloroethyl isopropyl ester"], "SMILES": "O(C(OC(C)Cl)=O)C(C)C", "physical_data": {"Molecular Weight": "166.60", "Molecular Formula": "C6H11ClO3", "Boiling Point": "92-94 \u00b0C @ Press: 55 Torr"}}