{"cas_no": "983-81-3", "cn_name": "\u53cd-1,2-\u53cc(\u4e8c\u82ef\u57fa\u78f7\u57fa)\u4e59\u70ef", "en_name": ["trans-1,2-Bis(diphenylphosphino)ethene", "Phosphine, 1,1\u2032-(1E)-1,2-ethenediylbis[1,1-diphenyl-", "Phosphine, vinylenebis[diphenyl-, (E)-", "Phosphine, 1,2-ethenediylbis[diphenyl-, (E)-", "Phosphine, (1E)-1,2-ethenediylbis[diphenyl-", "1,1\u2032-(1E)-1,2-Ethenediylbis[1,1-diphenylphosphine]", "(E)-Vinylenebis[diphenylphosphine]", "trans-1,2-Bis(diphenylphosphino)ethene", "(E)-1,2-Bis(diphenylphosphino)ethene", "(E)-1,2-Bis(diphenylphosphino)ethylene", "NSC 132587", "trans-Bis(diphenylphosphino)ethylene", "trans-1,2-Ethenediylbis(diphenylphosphine)", "Trans-dppen"], "SMILES": "P(C=CP(C1=CC=CC=C1)C2=CC=CC=C2)(C3=CC=CC=C3)C4=CC=CC=C4", "physical_data": {"Molecular Weight": "396.40", "Molecular Formula": "C26H22P2", "Melting Point": "125-126 \u00b0C"}}