{"cas_no": "983-80-2", "cn_name": "\u987a-1,2-\u53cc(\u4e8c\u82ef\u57fa\u81a6)\u4e59\u70ef", "en_name": ["cis-1,2-Bis(diphenylphosphino)ethylene", "Phosphine, 1,1\u2032-(1Z)-1,2-ethenediylbis[1,1-diphenyl-", "Phosphine, vinylenebis[diphenyl-, (Z)-", "Phosphine, 1,2-ethenediylbis[diphenyl-, (Z)-", "Phosphine, (1Z)-1,2-ethenediylbis[diphenyl-", "1,1\u2032-(1Z)-1,2-Ethenediylbis[1,1-diphenylphosphine]", "cis-Vinylenebis[diphenylphosphine]", "cis-1,2-Bis(diphenylphosphino)ethylene", "cis-1,2-Bis(diphenylphosphino)ethene", "(Z)-1,2-Bis(diphenylphosphino)ethene", "(Z)-1,2-Bis(diphenylphosphino)ethylene", "cis-1,2-Bis(diphenylphosphine)ethylene", "cis-Bis(diphenylphosphino)ethylene", "cis-1,2-Bis(diphenylphosphine)ethene"], "SMILES": "P(C=CP(C1=CC=CC=C1)C2=CC=CC=C2)(C3=CC=CC=C3)C4=CC=CC=C4", "physical_data": {"Molecular Weight": "396.40", "Molecular Formula": "C26H22P2", "Melting Point": "125 \u00b0C"}}