{"cas_no": "98319-26-7", "cn_name": "\u975e\u90a3\u96c4\u80fa", "en_name": ["Finasteride", "1H-Indeno[5,4-f]quinoline-7-carboxamide, N-(1,1-dimethylethyl)-2,4a,4b,5,6,6a,7,8,9,9a,9b,10,11,11a-tetradecahydro-4a,6a-dimethyl-2-oxo-, (4aR,4bS,6aS,7S,9aS,9bS,11aR)-", "4-Azaandrost-1-ene-17-carboxamide, N-(1,1-dimethylethyl)-3-oxo-, (5\u03b1,17\u03b2)-", "(4aR,4bS,6aS,7S,9aS,9bS,11aR)-N-(1,1-Dimethylethyl)-2,4a,4b,5,6,6a,7,8,9,9a,9b,10,11,11a-tetradecahydro-4a,6a-dimethyl-2-oxo-1H-indeno[5,4-f]quinoline-7-carboxamide", "MK 906", "Finasteride", "Proscar", "Prostide", "Propecia", "Finpecia", "Finastid", "Chibro-Proscar", "Fincar", "Fistide", "Finax", "Finast", "Finara", "Prosteride", "N-(tert-Butyl)-3-oxo-4-aza-5\u03b1-androst-1-ene-17-carboxamide", "Finalo", "Geffina", "Appecia", "Finasterid Alternova", "N-tert-Butyl-3-oxo-4-aza-5\u03b1-androst-1-ene-17\u03b2-carboxamide", "MeSH ID: D018120"], "SMILES": "CC12C(C3C(C4(C)C(CC3)NC(=O)C=C4)CC1)CCC2C(NC(C)(C)C)=O", "physical_data": {"Molecular Weight": "372.54", "Molecular Formula": "C23H36N2O2", "Melting Point": "252-254 \u00b0C"}}