{"cas_no": "98327-87-8", "cn_name": "1,1'-\u8054\u8418-2,2'-\u53cc\u4e8c\u82ef\u81a6 (BINAP)", "en_name": ["BINAP", "Phosphine, 1,1\u2032-[1,1\u2032-binaphthalene]-2,2\u2032-diylbis[1,1-diphenyl-", "Phosphine, [1,1\u2032-binaphthalene]-2,2\u2032-diylbis[diphenyl-", "1,1\u2032-[1,1\u2032-Binaphthalene]-2,2\u2032-diylbis[1,1-diphenylphosphine]", "BINAP", "2,2\u2032-Bis(diphenylphosphino)-1,1\u2032-binaphthyl", "rac-BINAP", "(\u00b1)-BINAP", "rac-2,2\u2032-Bis(diphenylphosphino)-1,1\u2032-binaphthyl", "[1,1\u2032-Binaphthalene]-2,2\u2032-diylbis[diphenylphosphine]", "2,2\u2032-Bis(diphenylphosphanyl)-1,1\u2032-binaphthyl", "2,2\u2032-Bis(diphenylphosphino)-1,1\u2032-binaphthalene", "(\u00b1)-2,2\u2032-Bis(diphenylphosphino)-1,1\u2032-binaphthalene", "1,1\u2032-Binaphthalene-2,2\u2032-diylbis(diphenylphosphane)", "(\u00b1)-2,2\u2032-Bis(diphenylphosphino)-1,1\u2032-binaphthyl", "2,2\u2032-Bis(diphenylphosphanyl)-1,1\u2032-binaphthalene", "rac-2,2\u2032-Bis(diphenylphosphino)-1,1\u2032-binaphthalene"], "SMILES": "P(C1=C(C2=C(C=C1)C=CC=C2)C3=C(P(C4=CC=CC=C4)C5=CC=CC=C5)C=CC6=C3C=CC=C6)(C7=CC=CC=C7)C8=CC=CC=C8", "physical_data": {"Molecular Weight": "622.67", "Molecular Formula": "C44H32P2", "Melting Point": "230-231 \u00b0C (decomp)"}}