{"cas_no": "98349-24-7", "cn_name": "2,4,5-\u4e09\u6c1f\u82ef\u7532\u9170\u4e59\u9178\u4e59\u916f", "en_name": ["Ethyl 2,4,5-trifluoro-\u03b2-oxobenzenepropanoate", "Benzenepropanoic acid, 2,4,5-trifluoro-\u03b2-oxo-, ethyl ester", "Ethyl 2,4,5-trifluoro-\u03b2-oxobenzenepropanoate", "Ethyl 2,4,5-trifluorobenzoylacetate", "3-Oxo-3-(2,4,5-trifluorophenyl)propionic acid ethyl ester", "2,4,5-trifluoro-\u03b2-oxobenzenepropanoic acid ethyl ester", "Ethyl 2,4,5-Trifluoro-\u03b2-oxobenzenepropanoate", "Ethyl 3-oxo-3-(2,4,5-trifluorophenyl)propanoate"], "SMILES": "C(CC(OCC)=O)(=O)C1=C(F)C=C(F)C(F)=C1", "physical_data": {"Molecular Weight": "246.18", "Molecular Formula": "C11H9F3O3", "Boiling Point": "92 \u00b0C @ Press: 0.08 Torr"}}