{"cas_no": "98349-25-8", "cn_name": "1-\u73af\u4e19\u57fa-6,7-\u4e8c\u6c1f-1,4-\u4e8c\u6c22-4-\u6c27\u4ee3-3-\u55b9\u5549\u7532\u9178\u4e59\u916f", "en_name": ["Ethyl 1-cyclopropyl-6,7-difluoro-4-oxo-1,4-dihydro-3-quinolinecarboxylate", "3-Quinolinecarboxylic acid, 1-cyclopropyl-6,7-difluoro-1,4-dihydro-4-oxo-, ethyl ester", "Ethyl 1-cyclopropyl-6,7-difluoro-4-oxo-1,4-dihydro-3-quinolinecarboxylate"], "SMILES": "O=C1C=2C(N(C=C1C(OCC)=O)C3CC3)=CC(F)=C(F)C2", "physical_data": {"Molecular Weight": "293.27", "Molecular Formula": "C15H13F2NO3", "Melting Point": "227 \u00b0C"}}