{"cas_no": "98389-04-9", "cn_name": "\u5421\u5627\u78fa\u9686(\u6bcd\u9178)", "en_name": ["Pyrazosulfuron", "1H-Pyrazole-4-carboxylic acid, 5-[[[[(4,6-dimethoxy-2-pyrimidinyl)amino]carbonyl]amino]sulfonyl]-1-methyl-", "5-[[[[(4,6-Dimethoxy-2-pyrimidinyl)amino]carbonyl]amino]sulfonyl]-1-methyl-1H-pyrazole-4-carboxylic acid", "Pyrazosulfuron"], "SMILES": "S(NC(NC=1N=C(OC)C=C(OC)N1)=O)(=O)(=O)C2=C(C(O)=O)C=NN2C", "physical_data": {"Molecular Weight": "386.34", "Molecular Formula": "C12H14N6O7S", "Melting Point": "202-204 \u00b0C"}}