{"cas_no": "98446-49-2", "cn_name": "2,4-\u4e8c\u6c2f-5-\u7532\u6c27\u57fa\u82ef\u80fa", "en_name": ["2,4-Dichloro-5-methoxybenzenamine", "Benzenamine, 2,4-dichloro-5-methoxy-", "2,4-Dichloro-5-methoxybenzenamine", "2,4-Dichloro-5-methoxyaniline", "5-Amino-2,4-dichloroanisole"], "SMILES": "O(C)C1=C(Cl)C=C(Cl)C(N)=C1", "physical_data": {"Molecular Weight": "192.04", "Molecular Formula": "C7H7Cl2NO", "Melting Point": "50.5-51.5 \u00b0C"}}