{"cas_no": "98475-07-1", "cn_name": "2-\u6eb4\u7532\u57fa-3-\u785d\u57fa\u82ef\u7532\u9178\u7532\u916f", "en_name": ["Benzoic acid, 2-(bromomethyl)-3-nitro-, methyl ester", "Benzoic acid, 2-(bromomethyl)-3-nitro-, methyl ester", "2-(Bromomethyl)-3-nitrobenzoic acid methyl ester", "Methyl 2-(bromomethyl)-3-nitrobenzoate"], "SMILES": "C(Br)C1=C(C(OC)=O)C=CC=C1N(=O)=O", "physical_data": {"Molecular Weight": "274.07", "Molecular Formula": "C9H8BrNO4", "Melting Point": "67-70 \u00b0C"}}