{"cas_no": "985-12-6", "cn_name": "\u76d0\u9178\u5c48\u4ed6\u7ef4\u6797", "en_name": ["Drotaverine hydrochloride", "Isoquinoline, 1-[(3,4-diethoxyphenyl)methylene]-6,7-diethoxy-1,2,3,4-tetrahydro-, hydrochloride (1:1)", "Isoquinoline, 1-(3,4-diethoxybenzylidene)-6,7-diethoxy-1,2,3,4-tetrahydro-, hydrochloride", "Isoquinoline, 1-[(3,4-diethoxyphenyl)methylene]-6,7-diethoxy-1,2,3,4-tetrahydro-, hydrochloride", "No-Spa hydrochloride", "Drotaverinium chloride", "Isodihydroperparine hydrochloride", "Tetraspasmin-Lefa", "Drotaverin hydrochloride", "Drotaverine hydrochloride", "No-Spa", "NOSH-BRA", "Drotin", "1-(3,4-Diethoxy-benzylidene)-6,7-diethoxy-1,2,3,4-tetrahydro-isoquinoline", "hydrochloride"], "SMILES": "C(=C1C=2C(=CC(OCC)=C(OCC)C2)CCN1)C3=CC(OCC)=C(OCC)C=C3.Cl", "physical_data": {"Molecular Weight": "", "Molecular Formula": "C24H31NO4.ClH", "Melting Point": "211-212 \u00b0C"}}