{"cas_no": "98534-80-6", "cn_name": "2-(4-\u6c2f\u82ef\u57fa)-3-(\u4e09\u6c1f\u7532\u57fa)\u5421\u5511-4-\u7fa7\u9178", "en_name": ["1-(4-Chlorophenyl)-5-(trifluoromethyl)-1H-pyrazole-4-carboxylic acid", "1H-Pyrazole-4-carboxylic acid, 1-(4-chlorophenyl)-5-(trifluoromethyl)-", "1-(4-Chlorophenyl)-5-(trifluoromethyl)-1H-pyrazole-4-carboxylic acid", "1-(4-Chlorophenyl)-5-trifluoromethyl-1H-pyrazole-4-carboxylic acid", "2-(4-Chlorophenyl)-3-(trifluoromethyl)-2H-pyrazole-4-carboxylic acid", "2-(4-Chlorophenyl)-3-(trifluoromethyl)pyrazole-4-carboxylic acid"], "SMILES": "C(F)(F)(F)C=1N(N=CC1C(O)=O)C2=CC=C(Cl)C=C2", "physical_data": {"Molecular Weight": "290.63", "Molecular Formula": "C11H6ClF3N2O2", "Melting Point": "136-138 \u00b0C"}}