{"cas_no": "98534-81-7", "cn_name": "1-\u82ef\u57fa-5-\u4e09\u6c1f\u7532\u57fa-1H-\u5421\u5511-4-\u7fa7\u9178", "en_name": ["1-Phenyl-5-(trifluoromethyl)-1H-pyrazole-4-carboxylic acid", "1H-Pyrazole-4-carboxylic acid, 1-phenyl-5-(trifluoromethyl)-", "1-Phenyl-5-(trifluoromethyl)-1H-pyrazole-4-carboxylic acid", "1-Phenyl-5-trifluoromethyl-1H-pyrazole-4-carboxylic acid", "1-Phenyl-5-trifluoromethylpyrazole-4-carboxylic acid"], "SMILES": "C(F)(F)(F)C=1N(N=CC1C(O)=O)C2=CC=CC=C2", "physical_data": {"Molecular Weight": "256.18", "Molecular Formula": "C11H7F3N2O2", "Melting Point": "132-134 \u00b0C"}}