{"cas_no": "98549-88-3", "cn_name": "1H-\u5421\u54af\u5e76[2,3-B]\u5421\u5576-5-\u9187", "en_name": ["1H-Pyrrolo[2,3-b]pyridin-5-ol", "1H-Pyrrolo[2,3-b]pyridin-5-ol", "5-Hydroxy-1H-pyrrolo[2,3-b]pyridine", "5-Hydroxy-7-azaindole"], "SMILES": "OC=1C=C2C(=NC1)NC=C2", "physical_data": {"Molecular Weight": "134.14", "Molecular Formula": "C7H6N2O", "Melting Point": "206.5-207.5 \u00b0C (decomp)"}}