{"cas_no": "98546-51-1", "cn_name": "4-\u7532\u786b\u57fa\u82ef\u787c\u9178", "en_name": ["4-(Methylthio)phenylboronic acid", "Boronic acid, B-[4-(methylthio)phenyl]-", "Benzeneboronic acid, p-(methylthio)-", "Boronic acid, [4-(methylthio)phenyl]-", "B-[4-(Methylthio)phenyl]boronic acid", "p-(Methylthio)phenylboronic acid", "4-(Methylthio)phenylboronic acid", "4-(Methylthio)benzeneboronic acid", "4-(Methylsulfanyl)phenylboronic acid", "4-(Methylsulfanyl)benzeneboronic acid", "p-Methylthiobenzylboronic acid"], "SMILES": "B(O)(O)C1=CC=C(SC)C=C1", "physical_data": {"Molecular Weight": "168.02", "Molecular Formula": "C7H9BO2S", "Melting Point": "209-209.5 \u00b0C"}}