{"cas_no": "98548-81-3", "cn_name": "4-(DIMETHYLAMINO)-2-BUTENOIC ACID HYDROCHLORIDE", "en_name": ["2-Butenoic acid, 4-(dimethylamino)-, hydrochloride (1:1)", "2-Butenoic acid, 4-(dimethylamino)-, hydrochloride (1:1)", "Crotonic acid, 4-dimethylamino-, hydrochloride", "2-Butenoic acid, 4-(dimethylamino)-, hydrochloride", "4-Dimethylaminobut-2-enoic acid hydrochloride"], "SMILES": "C(=CC(O)=O)CN(C)C.Cl", "physical_data": {"Molecular Weight": "", "Molecular Formula": "C6H11NO2.ClH", "Melting Point": "123 \u00b0C"}}