{"cas_no": "98593-51-2", "cn_name": "4-(\u7532\u78fa\u9170\u57fa)\u82c4\u80fa\u76d0\u9178\u76d0", "en_name": ["Benzenemethanamine, 4-(methylsulfonyl)-, hydrochloride (1:1)", "Benzenemethanamine, 4-(methylsulfonyl)-, hydrochloride (1:1)", "Benzylamine, p-(methylsulfonyl)-, hydrochloride", "Benzenemethanamine, 4-(methylsulfonyl)-, hydrochloride", "4-Methanesulfonylbenzylamine hydrochloride", "4-Methylsulfonylbenzylamine hydrochloride", "4-(Methylsulfonyl)benzylamine monohydrochloride", "(4-Methanesulfonylphenyl)methanamine hydrochloride"], "SMILES": "S(C)(=O)(=O)C1=CC=C(CN)C=C1.Cl", "physical_data": {"Molecular Weight": "", "Molecular Formula": "C8H11NO2S.ClH", "Melting Point": "279-280 \u00b0C"}}