{"cas_no": "98619-07-9", "cn_name": "2'-\u6c1f-4'-\u7f9f\u57fa\u82ef\u4e59\u916e", "en_name": ["4-Acetyl-3-fluorophenol", "Ethanone, 1-(2-fluoro-4-hydroxyphenyl)-", "1-(2-Fluoro-4-hydroxyphenyl)ethanone", "4-Acetyl-3-fluorophenol", "2\u2032-Fluoro-4\u2032-hydroxyacetophenone", "1-(2-Fluoro-4-hydroxyphenyl)-1-ethanone", "3-Fluoro-4-acetylphenol"], "SMILES": "C(C)(=O)C1=C(F)C=C(O)C=C1", "physical_data": {"Molecular Weight": "154.14", "Molecular Formula": "C8H7FO2", "Melting Point": "120-121 \u00b0C"}}