{"cas_no": "98623-16-6", "cn_name": "4-\u6c28\u57fa-N-", "en_name": ["4-Amino-N-methylbenzeneethanesulfonamide", "Benzeneethanesulfonamide, 4-amino-N-methyl-", "4-Amino-N-methylbenzeneethanesulfonamide", "2-(4-Aminophenyl)ethanesulfonic acid methylamide", "N-Methyl-2-(4-aminophenyl)ethanesulfonamide", "2-(4-Aminophenyl)-N-methylethanesulfonamide", "2-(4-Aminophenyl)-N-methylethane-1-sulfonamide"], "SMILES": "C(CS(NC)(=O)=O)C1=CC=C(N)C=C1", "physical_data": {"Molecular Weight": "214.28", "Molecular Formula": "C9H14N2O2S", "Melting Point": "126-128 \u00b0C"}}