{"cas_no": "98632-70-3", "cn_name": "\u58f3\u516b\u7cd6", "en_name": ["Acetylglucosamine", "D-Glucose, 2-(acetylamino)-2-deoxy-", "D-Glucose, 2-acetamido-2-deoxy-", "2-(Acetylamino)-2-deoxy-D-glucose", "N-Acetyl-D-glucosamine", "2-Acetamido-2-deoxy-D-glucose", "Acetylglucosamine", "N-Acetylglucosamine", "N-Acetyl-2-amino-2-deoxy-D-glucose", "N-Acetyl-2-amino-2-deoxyglucose", "2-Acetamido-D-glucose", "2-Acetamido-2-deoxyglucose", "D-N-Acetylglucosamine", "Marine Sweet", "NSC 524344", "Bio-NAG", "GreenNAG", "Marine Sweet YSK", "MarineSweet F", "Acetylchitosamine"], "SMILES": "C(C(C(C(CO)O)O)O)(NC(C)=O)C=O", "physical_data": {"Molecular Weight": "221.21", "Molecular Formula": "C8H15NO6", "Melting Point": "205 \u00b0C", "Density": "1.54 g/cm\u00b3"}}