{"cas_no": "98645-43-3", "cn_name": "2-\u6c2f-3-\u6c30\u57fa-4-\u7532\u6c27\u57fa\u5421\u5576", "en_name": ["2-Chloro-4-methoxy-3-pyridinecarbonitrile", "3-Pyridinecarbonitrile, 2-chloro-4-methoxy-", "2-Chloro-4-methoxy-3-pyridinecarbonitrile", "2-Chloro-3-cyano-4-methoxypyridine", "2-Chloro-4-methoxynicotinonitrile"], "SMILES": "O(C)C=1C(C#N)=C(Cl)N=CC1", "physical_data": {"Molecular Weight": "168.58", "Molecular Formula": "C7H5ClN2O", "Melting Point": "175-176 \u00b0C"}}