{"cas_no": "98651-70-8", "cn_name": "2-\u6c28\u57fa-4-\u7532\u6c27\u57fa\u70df\u8148", "en_name": ["2-Amino-4-methoxy-3-pyridinecarbonitrile", "3-Pyridinecarbonitrile, 2-amino-4-methoxy-", "2-Amino-4-methoxy-3-pyridinecarbonitrile", "2-Amino-4-methoxynicotinonitrile", "2-Amino-4-methoxypyridin-3-carbonitril"], "SMILES": "O(C)C=1C(C#N)=C(N)N=CC1", "physical_data": {"Molecular Weight": "149.15", "Molecular Formula": "C7H7N3O", "Melting Point": "211 \u00b0C"}}