{"cas_no": "98665-14-6", "cn_name": "\u7075\u829d\u9178F", "en_name": ["Ganoderic acid E", "Lanost-8-en-26-oic acid, 3,7,11,15,23-pentaoxo-, (25R)-", "(25R)-3,7,11,15,23-Pentaoxolanost-8-en-26-oic acid", "Ganoderic acid E", "Ganoderic acid F"], "SMILES": "CC12C3=C(C4(C)C(CC3=O)C(C)(C)C(=O)CC4)C(=O)CC1(C)C(C(CC(CC(C(O)=O)C)=O)C)CC2=O", "physical_data": {"Molecular Weight": "512.63", "Molecular Formula": "C30H40O7", "Melting Point": "120-122 \u00b0C"}}