{"cas_no": "98665-22-6", "cn_name": "\u7075\u829d\u9178 G", "en_name": ["Ganoderic acid G", "Lanost-8-en-26-oic acid, 3,7,12-trihydroxy-11,15,23-trioxo-, (3\u03b2,7\u03b2,12\u03b2)-", "(3\u03b2,7\u03b2,12\u03b2)-3,7,12-Trihydroxy-11,15,23-trioxolanost-8-en-26-oic acid", "Ganoderic acid G"], "SMILES": "CC12C3=C(C4(C)C(CC3O)C(C)(C)C(O)CC4)C(=O)C(O)C1(C)C(C(CC(CC(C(O)=O)C)=O)C)CC2=O", "physical_data": {"Molecular Weight": "532.67", "Molecular Formula": "C30H44O8", "Melting Point": "224-226 \u00b0C"}}