{"cas_no": "987-24-6", "cn_name": "\u918b\u9178\u500d\u4ed6\u7c73\u677e", "en_name": ["Betamethasone acetate", "Pregna-1,4-diene-3,20-dione, 21-(acetyloxy)-9-fluoro-11,17-dihydroxy-16-methyl-, (11\u03b2,16\u03b2)-", "Pregna-1,4-diene-3,20-dione, 9-fluoro-11\u03b2,17,21-trihydroxy-16\u03b2-methyl-, 21-acetate", "(11\u03b2,16\u03b2)-21-(Acetyloxy)-9-fluoro-11,17-dihydroxy-16-methylpregna-1,4-diene-3,20-dione", "21-Acetoxy-9\u03b1-fluoro-11\u03b2,17\u03b1-dihydroxy-16\u03b2-methylpregna-1,4-diene-3,20-dione", "Betamethasone acetate", "Betamethasone 21-acetate", "9-Fluoro-11\u03b2,17,21-trihydroxy-16\u03b2-methylpregna-1,4-diene-3,20-dione 21-acetate"], "SMILES": "CC12C(C3C(F)(C4(C)C(CC3)=CC(=O)C=C4)C(O)C1)CC(C)C2(C(COC(C)=O)=O)O", "physical_data": {"Molecular Weight": "434.50", "Molecular Formula": "C24H31FO6", "Melting Point": "232 \u00b0C"}}