{"cas_no": "98717-15-8", "cn_name": "\u76d0\u9178\u7f57\u54cc\u5361\u56e0", "en_name": ["Ropivacaine hydrochloride", "2-Piperidinecarboxamide, N-(2,6-dimethylphenyl)-1-propyl-, hydrochloride (1:1), (2S)-", "2-Piperidinecarboxamide, N-(2,6-dimethylphenyl)-1-propyl-, monohydrochloride, (S)-", "2-Piperidinecarboxamide, N-(2,6-dimethylphenyl)-1-propyl-, monohydrochloride, (2S)-", "AL 381", "Ropivacaine hydrochloride", "Naropin"], "SMILES": "C(NC1=C(C)C=CC=C1C)(=O)C2N(CCC)CCCC2.Cl", "physical_data": {"Molecular Weight": "", "Molecular Formula": "C17H26N2O.ClH", "Melting Point": "260-262 \u00b0C"}}