{"cas_no": "98737-29-2", "cn_name": "1-\u82c4\u57fa-2,3-\u73af\u6c27\u6b63\u4e19\u57fa-\u6c28\u57fa\u7532\u9178\u53d4\u4e01\u916f", "en_name": ["(2S,3S)-(-)-3-tert-Butoxycarbonylamino-1,2-epoxy-4-phenylbutane", "Carbamic acid, N-[(1S)-1-[(2S)-2-oxiranyl]-2-phenylethyl]-, 1,1-dimethylethyl ester", "Carbamic acid, (1-oxiranyl-2-phenylethyl)-, 1,1-dimethylethyl ester, [S-(R*,R*)]-", "Carbamic acid, [(1S)-1-(2S)-oxiranyl-2-phenylethyl]-, 1,1-dimethylethyl ester", "(2S,3S)-(-)-3-tert-Butoxycarbonylamino-1,2-epoxy-4-phenylbutane", "tert-Butyl [(1S)-1-((2S)-oxiranyl)-2-phenylethyl]carbamate", "(2S)-[(1S)-1-[(tert-Butoxycarbonyl)amino]-2-phenylethyl]oxirane", "tert-Butyl [(1S)-1-[(2S)-oxiranyl]-2-phenylethyl]carbamate", "[(1S)-1-((2S)-Oxiranyl)-2-phenylethyl]carbamic acid tert-butyl ester", "tert-Butyl [(1S)-1-((2S)-oxiran-2-yl)-2-phenylethyl]carbamate", "(2S,3S)-3-[(tert-Butoxycarbonyl)amino]-1,2-epoxy-4-phenylbutane", "tert-Butyl N-[(1S)-1-[(2S)-oxiran-2-yl]-2-phenylethyl]carbamate"], "SMILES": "C(CC1=CC=CC=C1)(NC(OC(C)(C)C)=O)C2CO2", "physical_data": {"Molecular Weight": "263.33", "Molecular Formula": "C15H21NO3", "Melting Point": "121-122 \u00b0C"}}