{"cas_no": "98730-04-2", "cn_name": "\u89e3\u8349\u916e", "en_name": ["Benoxacor", "Ethanone, 2,2-dichloro-1-(2,3-dihydro-3-methyl-4H-1,4-benzoxazin-4-yl)-", "2H-1,4-Benzoxazine, 4-(dichloroacetyl)-3,4-dihydro-3-methyl-", "2,2-Dichloro-1-(2,3-dihydro-3-methyl-4H-1,4-benzoxazin-4-yl)ethanone", "Benoxacor", "CGA 154281", "4-Dichloroacetyl-3,4-dihydro-3-methyl-2H-1,4-benzoxazine", "2,2-Dichloro-1-(3-methyl-2,3-dihydro-1,4-benzoxazin-4-yl)ethanone"], "SMILES": "C(C(Cl)Cl)(=O)N1C=2C(=CC=CC2)OCC1C", "physical_data": {"Molecular Weight": "260.12", "Molecular Formula": "C11H11Cl2NO2", "Melting Point": "107.6 \u00b0C"}}