{"cas_no": "98753-19-6", "cn_name": "\u5934\u5b62\u55b9\u54aa", "en_name": ["Cefpirome sulfate", "5H-Cyclopenta[b]pyridinium, 1-[[(6R,7R)-7-[[(2Z)-(2-amino-4-thiazolyl)(methoxyimino)acetyl]amino]-2-carboxy-8-oxo-5-thia-1-azabicyclo[4.2.0]oct-2-en-3-yl]methyl]-6,7-dihydro-, sulfate (1:1)", "HR 810 sulfate", "Cefpirome sulfate", "Keiten", "Broact"], "SMILES": "S(=O)(=O)([O-])O.C(O)(=O)C=1N2C(C(NC(C(=NOC)C3=CSC(N)=N3)=O)C2=O)SCC1C[N+]4=C5C(CCC5)=CC=C4", "physical_data": {"Molecular Weight": "", "Molecular Formula": "C22H23N6O5S2.HO4S", "Melting Point": "&gt;200 \u00b0C"}}