{"cas_no": "98769-84-7", "cn_name": "\u745e\u6ce2\u897f\u6c40\u7532\u78fa\u9178\u76d0", "en_name": ["Reboxetine mesylate", "Morpholine, 2-[(R)-(2-ethoxyphenoxy)phenylmethyl]-, (2R)-rel-, methanesulfonate (1:1)", "Morpholine, 2-[(2-ethoxyphenoxy)phenylmethyl]-, (R*,R*)-(\u00b1)-, methanesulfonate", "Morpholine, 2-[(R)-(2-ethoxyphenoxy)phenylmethyl]-, (2R)-rel-, methanesulfonate", "FCE 20124", "Reboxetine mesylate", "PNU 155950E", "Edronax", "Davedax", "PNU 155905E", "(\u00b1) Reboxetine mesylate", "Reboxetine mesilate"], "SMILES": "S(C)(=O)(=O)O.C(OC1=C(OCC)C=CC=C1)(C2=CC=CC=C2)C3CNCCO3", "physical_data": {"Molecular Weight": "", "Molecular Formula": "C19H23NO3.CH4O3S", "Melting Point": "148.4-149.1 \u00b0C"}}