{"cas_no": "988-75-0", "cn_name": "Z-\u7518\u6c28\u9170\u916a\u6c28\u9178", "en_name": ["N-[(Phenylmethoxy)carbonyl]-L-\u03b1-glutamyl-L-tyrosine", "L-Tyrosine, N-[(phenylmethoxy)carbonyl]-L-\u03b1-glutamyl-", "Tyrosine, N-(N-carboxy-L-\u03b1-glutamyl)-, N-benzyl ester, L-", "L-Tyrosine, N-[N-[(phenylmethoxy)carbonyl]-L-\u03b1-glutamyl]-", "N-[(Phenylmethoxy)carbonyl]-L-\u03b1-glutamyl-L-tyrosine", "n-Carbobenzoxy-L-glutamyl-L-tyrosine", "Benzyloxycarbonyl-L-glutamyl-L-tyrosine", "N-Benzyloxycarbonyl-L-glutamyl-L-tyrosine", "N-Carbobenzoxy-L-glutamyl-L-tyrosine", "NSC 89651"], "SMILES": "C(C(NC(C(NC(OCC1=CC=CC=C1)=O)CCC(O)=O)=O)C(O)=O)C2=CC=C(O)C=C2", "physical_data": {"Molecular Weight": "444.43", "Molecular Formula": "C22H24N2O8", "Melting Point": "185 \u00b0C"}}