{"cas_no": "98886-44-3", "cn_name": "\u567b\u5511\u78f7", "en_name": ["Fosthiazate", "Phosphonothioic acid, P-(2-oxo-3-thiazolidinyl)-, O-ethyl S-(1-methylpropyl) ester", "Phosphonothioic acid, (2-oxo-3-thiazolidinyl)-, O-ethyl S-(1-methylpropyl) ester", "IKI 1145", "S-sec-Butyl O-ethyl (2-oxo-3-thiazolidinyl)phosphonothioate", "Fosthiazate", "Nemathorin", "S-sec-Butyl O-ethyl (2-oxo-3-thiazolidinyl)phosphonothiolate"], "SMILES": "P(SC(CC)C)(OCC)(=O)N1C(=O)SCC1", "physical_data": {"Molecular Weight": "283.35", "Molecular Formula": "C9H18NO3PS2", "Boiling Point": "198 \u00b0C", "Melting Point": "&lt;25 \u00b0C"}}