{"cas_no": "98892-76-3", "cn_name": "1,2-\u4e8c\u7532\u57fa-3-\u4e59\u57fa\u54aa\u5511\u6eb4\u76d0", "en_name": ["1-Ethyl-2,3-dimethylimidazolium bromide", "1H-Imidazolium, 3-ethyl-1,2-dimethyl-, bromide (1:1)", "1H-Imidazolium, 1-ethyl-2,3-dimethyl-, bromide", "1-Ethyl-2,3-dimethylimidazolium bromide", "1,2-Dimethyl-3-ethylimidazolium bromide"], "SMILES": "C(C)[N+]1=C(C)N(C)C=C1.[Br-]", "physical_data": {"Molecular Weight": "", "Molecular Formula": "C7H13N2.Br", "Melting Point": "138-140 \u00b0C"}}