{"cas_no": "989-51-5", "cn_name": "(-)-\u8868\u6ca1\u98df\u5b50\u513f\u8336\u7d20\u6ca1\u98df\u5b50\u9178\u916f", "en_name": ["Epigallocatechin gallate", "Benzoic acid, 3,4,5-trihydroxy-, (2R,3R)-3,4-dihydro-5,7-dihydroxy-2-(3,4,5-trihydroxyphenyl)-2H-1-benzopyran-3-yl ester", "Epigallocatechol, 3-gallate, (-)-", "Benzoic acid, 3,4,5-trihydroxy-, 3,4-dihydro-5,7-dihydroxy-2-(3,4,5-trihydroxyphenyl)-2H-1-benzopyran-3-yl ester, (2R-cis)-", "Epigallocatechol, 3-gallate", "Epigallocatechol, gallate", "Gallic acid, 3-ester with epigallocatechol, (-)-", "(-)-Epigallocatechin gallate", "(-)-Epigallocatechol gallate", "(-)-Epigallocatechin 3-gallate", "Epigallocatechin gallate", "Epigallocatechin 3-gallate", "3-O-Galloyl-(-)-epigallocatechin", "(-)-Epigallocatechin 3-O-gallate", "L-Epigallocatechin gallate", "epi-Gallocatechin 3-O-gallate", "(-)-epi-Gallocatechin 3-O-gallate", "NVP-XAA 723", "Epigallocatechin 3-O-gallate", "Epigallocatechin-3-monogallate", "Teavigo", "PF-EGCg 90", "EGCG", "epi-Gallocatechin gallate", "Theliokeep", "Teafuran 90S", "EGCg-OP"], "SMILES": "O(C(=O)C1=CC(O)=C(O)C(O)=C1)C2C(OC=3C(C2)=C(O)C=C(O)C3)C4=CC(O)=C(O)C(O)=C4", "physical_data": {"Molecular Weight": "458.37", "Molecular Formula": "C22H18O11", "Melting Point": "217 \u00b0C"}}