{"cas_no": "98967-40-9", "cn_name": "\u5511\u5627\u78fa\u8349\u80fa", "en_name": ["Flumetsulam", "[1,2,4]Triazolo[1,5-a]pyrimidine-2-sulfonamide, N-(2,6-difluorophenyl)-5-methyl-", "N-(2,6-Difluorophenyl)-5-methyl-[1,2,4]triazolo[1,5-a]pyrimidine-2-sulfonamide", "Flumetsulam", "DE 498", "XRD 498", "Broadstrike", "Python", "Python (pesticide)", "Scorpion (pesticide)", "Scorpion"], "SMILES": "S(NC1=C(F)C=CC=C1F)(=O)(=O)C=2N=C3N(N2)C=CC(C)=N3", "physical_data": {"Molecular Weight": "325.29", "Molecular Formula": "C12H9F2N5O2S", "Melting Point": "252 \u00b0C"}}