{"cas_no": "98977-34-5", "cn_name": "1-N-Boc-4-\u6c27\u4ee3-3-\u54cc\u5576\u7fa7\u9178\u4e59\u916f", "en_name": ["1-(1,1-Dimethylethyl) 3-ethyl 4-oxo-1,3-piperidinedicarboxylate", "1,3-Piperidinedicarboxylic acid, 4-oxo-, 1-(1,1-dimethylethyl) 3-ethyl ester", "1-(1,1-Dimethylethyl) 3-ethyl 4-oxo-1,3-piperidinedicarboxylate", "Ethyl N-tert-butoxycarbonyl-4-oxo-3-piperidinecarboxylate", "1-tert-Butyl 3-ethyl 4-oxopiperidine-1,3-dicarboxylate", "4-Oxopiperidine-1,3-dicarboxylic acid 1-tert-butyl ester 3-ethyl ester", "1-tert-Butoxycarbonyl-3-(ethoxycarbonyl)piperidin-4-one", "1-O-tert-Butyl 3-O-ethyl 4-oxopiperidine-1,3-dicarboxylate"], "SMILES": "C(OCC)(=O)C1CN(C(OC(C)(C)C)=O)CCC1=O", "physical_data": {"Molecular Weight": "271.31", "Molecular Formula": "C13H21NO5", "Melting Point": "64-65 \u00b0C"}}