{"cas_no": "99-04-7", "cn_name": "\u95f4\u7532\u57fa\u82ef\u7532\u9178", "en_name": ["3-Methylbenzoic acid", "Benzoic acid, 3-methyl-", "m-Toluic acid", "3-Methylbenzoic acid", "m-Methylbenzoic acid", "\u03b2-Methylbenzoic acid", "m-Toluic acid", "NSC 2214"], "SMILES": "C(O)(=O)C1=CC(C)=CC=C1", "physical_data": {"Molecular Weight": "136.15", "Molecular Formula": "C8H8O2", "Boiling Point": "148-150 \u00b0C @ Press: 15-16 Torr", "Melting Point": "108.7 \u00b0C"}}