{"cas_no": "99-06-9", "cn_name": "\u95f4\u7f9f\u57fa\u82ef\u7532\u9178", "en_name": ["3-Hydroxybenzoic acid", "Benzoic acid, 3-hydroxy-", "Benzoic acid, m-hydroxy-", "3-Hydroxybenzoic acid", "m-Hydroxybenzoic acid", "m-Salicylic acid", "3-Carboxyphenol", "m-Carboxyphenol", "NSC 55746"], "SMILES": "C(O)(=O)C1=CC(O)=CC=C1", "physical_data": {"Molecular Weight": "138.12", "Molecular Formula": "C7H6O3", "Melting Point": "202 \u00b0C"}}