{"cas_no": "99-07-0", "cn_name": "3-\u7f9f\u57fa-N,N-\u4e8c\u7532\u57fa\u82ef\u80fa", "en_name": ["3-(Dimethylamino)phenol", "Phenol, 3-(dimethylamino)-", "Phenol, m-(dimethylamino)-", "3-(Dimethylamino)phenol", "N,N-Dimethyl-m-aminophenol", "m-(Dimethylamino)phenol", "(3-Hydroxyphenyl)dimethylamine", "3-Hydroxy-N,N-dimethylaniline", "m-(N,N-Dimethylamino)phenol", "3-N,N-Dimethylaminophenol", "NSC 62017", "N,N-Dimethyl-3-aminophenol"], "SMILES": "N(C)(C)C1=CC(O)=CC=C1", "physical_data": {"Molecular Weight": "137.18", "Molecular Formula": "C8H11NO", "Boiling Point": "266.5 \u00b0C", "Melting Point": "86 \u00b0C"}}