{"cas_no": "99-05-8", "cn_name": "\u95f4\u6c28\u57fa\u82ef\u7532\u9178", "en_name": ["3-Aminobenzoic acid", "Benzoic acid, 3-amino-", "Benzoic acid, m-amino-", "3-Aminobenzoic acid", "m-Aminobenzoic acid", "m-Carboxyaniline", "3-Carboxyaniline", "Aniline-3-carboxylic acid", "m-Carboxyphenylamine", "NSC 15012", "m-Anthranilic acid", "3-Aminobenzenecarboxylic acid", "MeSH ID: D062368"], "SMILES": "C(O)(=O)C1=CC(N)=CC=C1", "physical_data": {"Molecular Weight": "137.14", "Molecular Formula": "C7H7NO2", "Melting Point": "173 \u00b0C"}}