{"cas_no": "99-03-6", "cn_name": "\u95f4\u6c28\u57fa\u82ef\u4e59\u916e", "en_name": ["3\u2032-Aminoacetophenone", "Ethanone, 1-(3-aminophenyl)-", "Acetophenone, 3\u2032-amino-", "1-(3-Aminophenyl)ethanone", "m-Aminoacetylbenzene", "\u03b2-Aminoacetophenone", "m-Aminoacetophenone", "3\u2032-Aminoacetophenone", "m-Acetylaniline", "3-Acetylaniline", "1-Acetyl-3-aminobenzene", "3-Acetylphenylamine", "NSC 7637", "3-Methylcarbonylaniline", "1-(3-Aminophenyl)ethan-1-one"], "SMILES": "C(C)(=O)C1=CC(N)=CC=C1", "physical_data": {"Molecular Weight": "135.16", "Molecular Formula": "C8H9NO", "Boiling Point": "289.5 \u00b0C", "Melting Point": "98.5 \u00b0C"}}