{"cas_no": "99-08-1", "cn_name": "3-\u785d\u57fa\u7532\u82ef", "en_name": ["3-Nitrotoluene", "Benzene, 1-methyl-3-nitro-", "Toluene, m-nitro-", "1-Methyl-3-nitrobenzene", "m-Methylnitrobenzene", "MNT", "3-Nitrotoluene", "3-Methylnitrobenzene", "3-Methyl-1-nitrobenzene", "m-Mononitrotoluene", "m-Nitrotoluene", "NSC 9578", "1-Nitro-3-methylbenzene"], "SMILES": "N(=O)(=O)C1=CC(C)=CC=C1", "physical_data": {"Molecular Weight": "137.14", "Molecular Formula": "C7H7NO2", "Boiling Point": "231.9 \u00b0C @ Press: 760 Torr", "Melting Point": "15.5 \u00b0C", "Density": "1.1581 g/cm\u00b3 @ Temp: 20 \u00b0C"}}