{"cas_no": "99-09-2", "cn_name": "3-\u785d\u57fa\u82ef\u80fa", "en_name": ["3-Nitroaniline", "Benzenamine, 3-nitro-", "Aniline, m-nitro-", "3-Nitrobenzenamine", "C.I. 37030", "Amarthol Fast Orange R Base", "Azobase MNA", "Daito Orange Base R", "Devol Orange R", "Diazo Fast Orange R", "Fast Orange M Base", "Fast Orange R Base", "Fast Orange MM Base", "Hiltonil Fast Orange R Base", "Fast Orange Base R", "MNA", "Naphtoelan Orange R Base", "m-Nitroaniline", "Orange Base Irga I", "3-Nitroaniline", "C.I. Azoic Diazo Component 7", "Fast Orange R Salt", "m-Nitrophenylamine", "Nitranilin", "1-Amino-3-nitrobenzene", "m-Aminonitrobenzene", "m-Nitroaminobenzene", "meta-Nitroaniline", "3-Aminonitrobenzene", "3-Nitrophenylamine", "NSC 9574", "m-Aminonitrobenze"], "SMILES": "N(=O)(=O)C1=CC(N)=CC=C1", "physical_data": {"Molecular Weight": "138.12", "Molecular Formula": "C6H6N2O2", "Boiling Point": "306 \u00b0C", "Melting Point": "114 \u00b0C", "Density": "0.9011 g/cm\u00b3 @ Temp: 25 \u00b0C"}}