{"cas_no": "99-02-5", "cn_name": "3-\u6c2f\u82ef\u4e59\u916e", "en_name": ["1-(3-Chlorophenyl)ethanone", "Ethanone, 1-(3-chlorophenyl)-", "Acetophenone, 3\u2032-chloro-", "1-(3-Chlorophenyl)ethanone", "m-Chloroacetophenone", "3\u2032-Chloroacetophenone", "1-Acetyl-3-chlorobenzene", "Methyl 3-chlorophenyl ketone", "3-Chlorophenyl methyl ketone", "1-(3-Chlorophenyl)ethan-1-one"], "SMILES": "C(C)(=O)C1=CC(Cl)=CC=C1", "physical_data": {"Molecular Weight": "154.59", "Molecular Formula": "C8H7ClO", "Boiling Point": "244 \u00b0C", "Density": "1.2130 g/cm\u00b3 @ Temp: 10 \u00b0C"}}