{"cas_no": "99-14-9", "cn_name": "\u4e19\u4e09\u9178", "en_name": ["1,2,3-Propanetricarboxylic acid", "1,2,3-Propanetricarboxylic acid", "Tricarballylic acid", "Carballylic acid", "\u03b2-Carboxyglutaric acid", "1,2,3-Tricarboxypropane", "3-Carboxyglutaric acid", "NSC 2347", "AI-942/42301799", "Rikacid TCR 100"], "SMILES": "C(CC(O)=O)(CC(O)=O)C(O)=O", "physical_data": {"Molecular Weight": "176.12", "Molecular Formula": "C6H8O6", "Melting Point": "166 \u00b0C"}}