{"cas_no": "99-10-5", "cn_name": "3,5-\u4e8c\u7f9f\u57fa\u82ef\u7532\u9178", "en_name": ["3,5-Dihydroxybenzoic acid", "Benzoic acid, 3,5-dihydroxy-", "\u03b1-Resorcylic acid", "3,5-Dihydroxybenzoic acid", "5-Carboxyresorcinol", "NSC 22948"], "SMILES": "C(O)(=O)C1=CC(O)=CC(O)=C1", "physical_data": {"Molecular Weight": "154.12", "Molecular Formula": "C7H6O4", "Melting Point": "237 \u00b0C (decomp)"}}