{"cas_no": "99-15-0", "cn_name": "N-\u4e59\u9170-DL-\u4eae\u6c28\u9178", "en_name": ["Acetyl-DL-leucine", "Leucine, N-acetyl-", "Leucine, N-acetyl-, DL-", "DL-Leucine, N-acetyl-", "N-Acetylleucine", "N-Acetyl-DL-leucine", "Acetyl-DL-leucine", "Acetylleucine", "NSC 122020", "2-Acetamido-4-methylpentanoic acid", "Tanganil", "2-[(1-Hydroxyethylidene)amino]-4-methylpentanoic acid"], "SMILES": "C(CC(C)C)(NC(C)=O)C(O)=O", "physical_data": {"Molecular Weight": "173.21", "Molecular Formula": "C8H15NO3", "Melting Point": "159-160 \u00b0C"}}