{"cas_no": "99-16-1", "cn_name": "\u5c3f\u56ca\u9178", "en_name": ["Allantoic acid", "Acetic acid, 2,2-bis[(aminocarbonyl)amino]-", "Acetic acid, diureido-", "Allantoic acid", "Acetic acid, bis[(aminocarbonyl)amino]-", "2,2-Bis[(aminocarbonyl)amino]acetic acid", "2,2-Diureidoacetic acid"], "SMILES": "C(NC(N)=O)(NC(N)=O)C(O)=O", "physical_data": {"Molecular Weight": "176.13", "Molecular Formula": "C4H8N4O4", "Melting Point": "168 \u00b0C"}}