{"cas_no": "99-12-7", "cn_name": "3,5-\u4e8c\u7532\u57fa\u785d\u57fa\u82ef", "en_name": ["1,3-Dimethyl-5-nitrobenzene", "Benzene, 1,3-dimethyl-5-nitro-", "m-Xylene, 5-nitro-", "1,3-Dimethyl-5-nitrobenzene", "3,5-Dimethyl-1-nitrobenzene", "5-Nitro-m-xylene", "3,5-Dimethylnitrobenzene", "1-Nitro-3,5-dimethylbenzene", "NSC 5403", "5-Methyl-3-nitrotoluene"], "SMILES": "N(=O)(=O)C1=CC(C)=CC(C)=C1", "physical_data": {"Molecular Weight": "151.16", "Molecular Formula": "C8H9NO2", "Boiling Point": "274 \u00b0C", "Melting Point": "75 \u00b0C"}}