{"cas_no": "99-18-3", "cn_name": "\u91ce\u9ed1\u6a31\u82f7", "en_name": ["Prunasin", "Benzeneacetonitrile, \u03b1-(\u03b2-D-glucopyranosyloxy)-, (\u03b1R)-", "Prunasin", "Benzeneacetonitrile, \u03b1-(\u03b2-D-glucopyranosyloxy)-, (R)-", "(\u03b1R)-\u03b1-(\u03b2-D-Glucopyranosyloxy)benzeneacetonitrile", "D-Prunasin", "(R)-Prunasin", "(2R)-Prunasin", "Benzeneacetonitrile 7-O-\u03b2-D-glucopyranoside"], "SMILES": "O(C(C#N)C1=CC=CC=C1)C2OC(CO)C(O)C(O)C2O", "physical_data": {"Molecular Weight": "295.29", "Molecular Formula": "C14H17NO6", "Melting Point": "148 \u00b0C"}}