{"cas_no": "99-20-7", "cn_name": "\u6d77\u85fb\u7cd6", "en_name": ["Trehalose", "\u03b1-D-Glucopyranoside, \u03b1-D-glucopyranosyl", "Trehalose", "\u03b1-D-Glucopyranosyl \u03b1-D-glucopyranoside", "Ergot sugar", "Mycose", "Natural trehalose", "\u03b1,\u03b1-Trehalose", "\u03b1-D-Trehalose", "D-(+)-Trehalose", "\u03b1-Trehalose", "D-Trehalose", "\u03b1,\u03b1\u2032-D-Trehalose", "Trehaose", "Treha", "NSC 2093", "O-D-Glucopyranosyl-(1\u21921)-D-glucopyranoside", "Trehalose P", "Thealoz", "Cabaletta", "Trehalose 100PH", "Tremalose", "SLS 005", "MeSH ID: D014199"], "SMILES": "O(C1OC(CO)C(O)C(O)C1O)C2OC(CO)C(O)C(O)C2O", "physical_data": {"Molecular Weight": "342.30", "Molecular Formula": "C12H22O11", "Melting Point": "203 \u00b0C", "Density": "1.53 g/cm\u00b3"}}