{"cas_no": "99-28-5", "cn_name": "2,6-\u4e8c\u6eb4-4-\u785d\u57fa\u82ef\u915a", "en_name": ["2,6-Dibromo-4-nitrophenol", "Phenol, 2,6-dibromo-4-nitro-", "2,6-Dibromo-4-nitrophenol", "4-Nitro-2,6-dibromophenol", "3,5-Dibromo-4-hydroxynitrobenzene", "NSC 2585"], "SMILES": "N(=O)(=O)C1=CC(Br)=C(O)C(Br)=C1", "physical_data": {"Molecular Weight": "296.90", "Molecular Formula": "C6H3Br2NO3", "Melting Point": "145 \u00b0C (decomp)"}}