{"cas_no": "99-24-1", "cn_name": "\u6ca1\u98df\u5b50\u9178\u7532\u916f", "en_name": ["Methyl gallate", "Benzoic acid, 3,4,5-trihydroxy-, methyl ester", "Gallic acid, methyl ester", "Methyl gallate", "3,4,5-Trihydroxybenzoic acid methyl ester", "Methyl 3,4,5-trihydroxybenzoate", "NSC 363001", "Gallincin"], "SMILES": "C(OC)(=O)C1=CC(O)=C(O)C(O)=C1", "physical_data": {"Molecular Weight": "184.15", "Molecular Formula": "C8H8O5", "Melting Point": "261.5 \u00b0C"}}