{"cas_no": "99-27-4", "cn_name": "5-\u6c28\u57fa\u95f4\u82ef\u4e8c\u7532\u9178\u4e8c\u7532\u916f", "en_name": ["1,3-Benzenedicarboxylic acid, 5-amino-, 1,3-dimethyl ester", "1,3-Benzenedicarboxylic acid, 5-amino-, 1,3-dimethyl ester", "Isophthalic acid, 5-amino-, dimethyl ester", "1,3-Benzenedicarboxylic acid, 5-amino-, dimethyl ester", "3,5-Dicarbomethoxyaniline", "5-Aminoisophthalic acid dimethyl ester", "Dimethyl 5-aminoisophthalate", "Dimethyl 5-aminobenzene-1,3-dicarboxylate", "5-Aminobenzene-1,3-dicarboxylic acid dimethyl ester", "Methyl 5-amino-3-(methoxycarbonyl)benzoate", "NSC 34721", "3,5-Dimethoxycarbonylaniline", "3,5-Bis(methoxycarbonyl)aniline", "5-Aminoisophthalic acid methyl ester", "1,3-Dimethyl 5-aminobenzene-1,3-dicarboxylate"], "SMILES": "C(OC)(=O)C1=CC(C(OC)=O)=CC(N)=C1", "physical_data": {"Molecular Weight": "209.20", "Molecular Formula": "C10H11NO4", "Boiling Point": "178-180 \u00b0C", "Melting Point": "176-178 \u00b0C"}}