{"cas_no": "99-29-6", "cn_name": "2-\u6c2f-4-\u785d\u57fa-6-\u6eb4\u82ef\u80fa", "en_name": ["2-Bromo-6-chloro-4-nitroaniline", "Benzenamine, 2-bromo-6-chloro-4-nitro-", "Aniline, 2-bromo-6-chloro-4-nitro-", "2-Bromo-6-chloro-4-nitrobenzenamine", "2-Bromo-6-chloro-4-nitroaniline", "2-Bromo-4-nitro-6-chloroaniline", "2-Chloro-6-bromo-4-nitroaniline", "6-Bromo-2-chloro-4-nitroaniline", "NSC 88985", "1-Amino-2-bromo-4-nitro-6-chlorobenzene", "2-Chloro-4-nitro-6-bromoaniline"], "SMILES": "N(=O)(=O)C1=CC(Br)=C(N)C(Cl)=C1", "physical_data": {"Molecular Weight": "251.47", "Molecular Formula": "C6H4BrClN2O2", "Melting Point": "177.4 \u00b0C"}}