{"cas_no": "99-21-8", "cn_name": "\u7d2b\u7f57\u5170B", "en_name": ["N-(4-Amino-5-methoxy-2-methylphenyl)benzamide", "Benzamide, N-(4-amino-5-methoxy-2-methylphenyl)-", "m-Benzanisidide, 4\u2032-amino-6\u2032-methyl-", "N-(4-Amino-5-methoxy-2-methylphenyl)benzamide", "3-Amino-6-benzoylamido-4-methoxy-1-methylbenzol", "4\u2032-Amino-6\u2032-methyl-m-benzanisidide", "4-Amino-1-benzoylamino-3-methoxy-6-methylbenzene", "Fast Violet B", "N-(2-Methyl-5-methoxy-4-aminophenyl)benzamide"], "SMILES": "N(C(=O)C1=CC=CC=C1)C2=CC(OC)=C(N)C=C2C", "physical_data": {"Molecular Weight": "256.30", "Molecular Formula": "C15H16N2O2", "Melting Point": "185 \u00b0C"}}