{"cas_no": "99-34-3", "cn_name": "3,5-\u4e8c\u785d\u57fa\u82ef\u7532\u9178", "en_name": ["3,5-Dinitrobenzoic acid", "Benzoic acid, 3,5-dinitro-", "3,5-Dinitrobenzoic acid", "3-Carboxy-1,5-dinitrobenzene", "DNBA", "NSC 8732"], "SMILES": "C(O)(=O)C1=CC(N(=O)=O)=CC(N(=O)=O)=C1", "physical_data": {"Molecular Weight": "212.12", "Molecular Formula": "C7H4N2O6", "Melting Point": "205 \u00b0C"}}