{"cas_no": "99-31-0", "cn_name": "5-\u6c28\u57fa\u95f4\u82ef\u4e8c\u7532\u9178", "en_name": ["3,5-Dicarboxyaniline", "1,3-Benzenedicarboxylic acid, 5-amino-", "Isophthalic acid, 5-amino-", "5-Amino-1,3-benzenedicarboxylic acid", "5-Aminoisophthalic acid", "3,5-Dicarboxyaniline", "5-Aminoisophthalate", "NSC 60141", "Aniline-3,5-dicarboxylic acid", "3-Aminoisophthalic acid", "5-Amino-m-phthalic acid"], "SMILES": "C(O)(=O)C1=CC(C(O)=O)=CC(N)=C1", "physical_data": {"Molecular Weight": "181.15", "Molecular Formula": "C8H7NO4", "Melting Point": "360 \u00b0C"}}