{"cas_no": "99-32-1", "cn_name": "\u767d\u5c48\u83dc\u9178", "en_name": ["Chelidonic acid", "4H-Pyran-2,6-dicarboxylic acid, 4-oxo-", "Chelidonic acid", "4-Oxo-4H-pyran-2,6-dicarboxylic acid", "Jerva acid", "Jervaic acid", "Jervasic acid", "4-Oxo-1,4-pyran-2,6-dicarboxylic acid", "\u03b3-Pyrone-2,6-dicarboxylic acid", "2,6-Dicarboxy-4-pyrone", "4-Pyranone-2,6-dicarboxylic acid", "NSC 3979"], "SMILES": "C(O)(=O)C=1OC(C(O)=O)=CC(=O)C1", "physical_data": {"Molecular Weight": "184.10", "Molecular Formula": "C7H4O6", "Melting Point": "262 \u00b0C", "Density": "1.571 g/cm\u00b3"}}