{"cas_no": "99-36-5", "cn_name": "3-\u7532\u57fa\u82ef\u7532\u9178\u7532\u916f", "en_name": ["Benzoic acid, 3-methyl-, methyl ester", "Benzoic acid, 3-methyl-, methyl ester", "m-Toluic acid, methyl ester", "Methyl m-toluate", "Methyl 3-methylbenzoate", "Methyl m-methylbenzoate", "Methyl 3-toluate", "NSC 20004", "NSC 69227", "3-Methylbenzoic acid methyl ester", "Methyl 2-methyl-4-benzoate"], "SMILES": "C(OC)(=O)C1=CC(C)=CC=C1", "physical_data": {"Molecular Weight": "150.17", "Molecular Formula": "C9H10O2", "Boiling Point": "221 \u00b0C", "Density": "1.0473 g/cm\u00b3 @ Temp: 40 \u00b0C"}}