{"cas_no": "99-33-2", "cn_name": "3,5-\u4e8c\u785d\u57fa\u82ef\u7532\u9170\u6c2f", "en_name": ["3,5-Dinitrobenzoyl chloride", "Benzoyl chloride, 3,5-dinitro-", "3,5-Dinitrobenzoyl chloride", "3,5-Dinitrobenzoic acid chloride", "NSC 2697"], "SMILES": "C(Cl)(=O)C1=CC(N(=O)=O)=CC(N(=O)=O)=C1", "physical_data": {"Molecular Weight": "230.56", "Molecular Formula": "C7H3ClN2O5", "Boiling Point": "211-213 \u00b0C @ Press: 16 Torr", "Melting Point": "74 \u00b0C"}}