{"cas_no": "99-30-9", "cn_name": "2,6-\u4e8c\u6c2f-4-\u785d\u57fa\u82ef\u80fa", "en_name": ["2,6-Dichloro-4-nitroaniline", "Benzenamine, 2,6-dichloro-4-nitro-", "Aniline, 2,6-dichloro-4-nitro-", "2,6-Dichloro-4-nitrobenzenamine", "AL 50", "U-2069", "Botran", "DCNA (fungicide)", "2,6-Dichloro-4-nitroaniline", "Ditranil", "Allisan", "Bortran", "Dicloran", "1-Amino-2,6-dichloro-4-nitrobenzene", "Dichloran", "CNA", "Dichloran (amine fungicide)", "DCNA", "4-Nitro-2,6-dichloroaniline", "Botran 75W", "Resisan", "2,6-Dichloro-p-nitroaniline", "Batran", "Botran 75B", "NSC 218", "2,6-Dichloro-4-nitro-phenylamine"], "SMILES": "N(=O)(=O)C1=CC(Cl)=C(N)C(Cl)=C1", "physical_data": {"Molecular Weight": "207.01", "Molecular Formula": "C6H4Cl2N2O2", "Boiling Point": "130 \u00b0C @ Press: 2.0 Torr", "Melting Point": "191 \u00b0C"}}