{"cas_no": "99-35-4", "cn_name": "1\uff0c3\uff0c5-\u4e09\u94cc\u6c27\u57fa", "en_name": ["1,3,5-Trinitrobenzene", "Benzene, 1,3,5-trinitro-", "1,3,5-Trinitrobenzene", "s-Trinitrobenzene", "2,4,6-Trinitrobenzene", "Trinitrobenzene", "TNB", "sym-Trinitrobenzene", "TNB (nitro compound)", "NSC 36931"], "SMILES": "N(=O)(=O)C1=CC(N(=O)=O)=CC(N(=O)=O)=C1", "physical_data": {"Molecular Weight": "213.10", "Molecular Formula": "C6H3N3O6", "Boiling Point": "315 \u00b0C @ Press: 760 Torr", "Melting Point": "122.5 \u00b0C", "Density": "1.76 g/cm\u00b3 @ Temp: 20 \u00b0C"}}