{"cas_no": "99-43-4", "cn_name": "\u4e01\u6c27\u5361\u56e0", "en_name": ["Oxybuprocaine", "Benzoic acid, 4-amino-3-butoxy-, 2-(diethylamino)ethyl ester", "4-Amino-3-butoxybenzoic acid 2-diethylaminoethyl ester", "Benoxinate", "3-Butoxy-4-aminobenzoic acid 2-diethylaminoethyl ester", "2-Diethylaminoethyl 4-amino-3-butoxybenzoate", "Dorsacain", "Oxybucaine", "Oxybuprocaine", "Conjucain", "Novesinol", "Prescaina", "Benoxy"], "SMILES": "C(OCCN(CC)CC)(=O)C1=CC(OCCCC)=C(N)C=C1", "physical_data": {"Molecular Weight": "308.42", "Molecular Formula": "C17H28N2O3", "Boiling Point": "216.5 \u00b0C"}}