{"cas_no": "99-49-0", "cn_name": "\u9999\u82b9\u916e", "en_name": ["Carvone", "2-Cyclohexen-1-one, 2-methyl-5-(1-methylethenyl)-", "p-Mentha-6,8-dien-2-one", "2-Methyl-5-(1-methylethenyl)-2-cyclohexen-1-one", "Carvone", "p-Mentha-1(6),8-dien-2-one", "Karvon", "5-Isopropyl-2-methyl-2-cyclohexen-1-one", "DL-Carvone", "(\u00b1)-Carvone", "2-Methyl-5-isopropenyl-2-cyclohexenone", "NSC 6275", "Limonen-6-one", "5-Isopropenyl-2-methylcyclohex-2-enone", "2-Methyl-5-(1-methyl-1-ethenyl)-2-cyclohexen-1-one", "2-Methyl-5-(prop-1-en-2-yl)cyclohex-2-en-1-one", "2-Methyl-5-prop-1-en-2-ylcyclohex-2-en-1-one", "2-Methyl-5-(prop-1-en-2-yl)cyclohex-2-enone"], "SMILES": "C(C)(=C)C1CC(=O)C(C)=CC1", "physical_data": {"Molecular Weight": "150.22", "Molecular Formula": "C10H14O", "Boiling Point": "231 \u00b0C", "Melting Point": "100 \u00b0C", "Density": "0.9600 g/cm\u00b3 @ Temp: 26 \u00b0C"}}