{"cas_no": "99-40-1", "cn_name": "3,4-\u4e8c\u7f9f\u57fa-2'-\u6c2f\u82ef\u4e59\u916e", "en_name": ["2-Chloro-3\u2032,4\u2032-dihydroxyacetophenone", "Ethanone, 2-chloro-1-(3,4-dihydroxyphenyl)-", "Acetophenone, 2-chloro-3\u2032,4\u2032-dihydroxy-", "Acetophenone, \u03b1-chloro-3,4-dihydroxy-", "2-Chloro-1-(3,4-dihydroxyphenyl)ethanone", "3,4-Dihydroxyphenacyl chloride", "\u03b1-Chloro-3\u2032,4\u2032-dihydroxyacetophenone", "2-Chloro-3\u2032,4\u2032-dihydroxyacetophenone", "1-Chloroacetyl-3,4-dihydroxybenzene", "2-Chloro-1-(3,4-dihydroxyphenyl)-1-ethanone", "4-(Chloroacetyl)catechol", "NSC 13905", "NSC 17869", "3,4-Dihydroxy-\u03b1-chloroacetophenone", "3\u2032,4\u2032-Dihydroxy-2-chloroacetophenone"], "SMILES": "C(CCl)(=O)C1=CC(O)=C(O)C=C1", "physical_data": {"Molecular Weight": "186.59", "Molecular Formula": "C8H7ClO3", "Melting Point": "173 \u00b0C (decomp)"}}