{"cas_no": "99-45-6", "cn_name": "\u80be\u4e0a\u817a\u916e", "en_name": ["Adrenalone", "Ethanone, 1-(3,4-dihydroxyphenyl)-2-(methylamino)-", "Adrenalone", "Acetophenone, 3\u2032,4\u2032-dihydroxy-2-(methylamino)-", "1-(3,4-Dihydroxyphenyl)-2-(methylamino)ethanone", "Adrenone", "3\u2032,4\u2032-Dihydroxy-2-(methylamino)acetophenone", "Haemodan", "Kephrine", "Methaminoacetocatechol", "Styphnone", "Stryphnone", "U 2134", "4-Methylaminoacetopyrocatechol", "Stypnone", "3,4-Dihydroxy-\u03b1-methylaminoacetophenone", "Stryphnon", "Adrenon", "Chemosan", "Stypnon", "Ketogaze", "NSC 243611", "Adrenolone", "1-(3,4-Dihydroxyphenyl)-2-(methylamino)ethan-1-one"], "SMILES": "C(CNC)(=O)C1=CC(O)=C(O)C=C1", "physical_data": {"Molecular Weight": "181.19", "Molecular Formula": "C9H11NO3", "Melting Point": "235.5 \u00b0C (decomp)"}}