{"cas_no": "99-42-3", "cn_name": "3-\u785d\u57fa-4-\u7f9f\u57fa\u82ef\u7532\u9178\u7532\u916f", "en_name": ["Methyl 4-hydroxy-3-nitrobenzoate", "Benzoic acid, 4-hydroxy-3-nitro-, methyl ester", "4-Hydroxy-3-nitrobenzoic acid methyl ester", "Methyl 4-hydroxy-3-nitrobenzoate", "4-(Methoxycarbonyl)-2-nitrophenol", "Methyl 3-nitro-4-hydroxybenzoate", "NSC 28667", "3-Nitro-4-hydroxybenzoic acid methyl ester"], "SMILES": "C(OC)(=O)C1=CC(N(=O)=O)=C(O)C=C1", "physical_data": {"Molecular Weight": "197.14", "Molecular Formula": "C8H7NO5", "Melting Point": "75-76 \u00b0C"}}