{"cas_no": "99-48-9", "cn_name": "\u9999\u82b9\u9187", "en_name": ["Carveol", "2-Cyclohexen-1-ol, 2-methyl-5-(1-methylethenyl)-", "p-Mentha-6,8-dien-2-ol", "2-Methyl-5-(1-methylethenyl)-2-cyclohexen-1-ol", "Carveol", "2-Methyl-5-isopropenyl-2-cyclohexen-1-ol", "p-Mentha-1,8-dien-6-ol", "5-Isopropenyl-2-methyl-2-cyclohexen-1-ol", "NSC 68313", "5-Isopropenyl-2-methylcyclohex-2-enol", "2-Methyl-5-(prop-1-en-2-yl)cyclohex-2-en-1-ol", "2-Methyl-5-prop-1-en-2-ylcyclohex-2-en-1-ol"], "SMILES": "C(C)(=C)C1CC(O)C(C)=CC1", "physical_data": {"Molecular Weight": "152.23", "Molecular Formula": "C10H16O", "Boiling Point": "228 \u00b0C", "Melting Point": "24-25 \u00b0C", "Density": "0.9578 g/cm\u00b3 @ Temp: 15 \u00b0C"}}