{"cas_no": "99-59-2", "cn_name": "2-\u6c28\u57fa-4-\u785d\u57fa\u82ef\u7532\u919a", "en_name": ["2-Methoxy-5-nitroaniline", "Benzenamine, 2-methoxy-5-nitro-", "o-Anisidine, 5-nitro-", "2-Methoxy-5-nitrobenzenamine", "1-Amino-2-methoxy-5-nitrobenzene", "2-Methoxy-5-nitroaniline", "5-Nitro-2-methoxyaniline", "2-Amino-4-nitroanisole", "5-Nitro-o-anisidine", "3-Nitro-6-methoxyaniline", "Azoamine Scarlet K", "2-Amino-1-methoxy-4-nitrobenzene", "1-Methoxy-2-amino-4-nitrobenzene", "4-Nitro-2-aminoanisole", "NSC 5510", "(2-Methoxy-5-nitrophenyl)amine", "2-(Methyloxy)-5-nitroaniline"], "SMILES": "N(=O)(=O)C1=CC(N)=C(OC)C=C1", "physical_data": {"Molecular Weight": "168.15", "Molecular Formula": "C7H8N2O3", "Boiling Point": "153-156 \u00b0C @ Press: 1.45 Torr", "Melting Point": "118 \u00b0C", "Density": "1.2068 g/cm\u00b3 @ Temp: 156 \u00b0C"}}