{"cas_no": "99-54-7", "cn_name": "3,4-\u4e8c\u6c2f\u785d\u57fa\u82ef", "en_name": ["1,2-Dichloro-4-nitrobenzene", "Benzene, 1,2-dichloro-4-nitro-", "1,2-Dichloro-4-nitrobenzene", "3,4-Dichloronitrobenzene", "1-Nitro-3,4-dichlorobenzene", "NSC 6295", "NSC 99806", "DCNB", "4-Nitro-1,2-dichlorobenzene"], "SMILES": "N(=O)(=O)C1=CC(Cl)=C(Cl)C=C1", "physical_data": {"Molecular Weight": "192.00", "Molecular Formula": "C6H3Cl2NO2", "Boiling Point": "255-256 \u00b0C", "Melting Point": "43 \u00b0C", "Density": "1.4558 g/cm\u00b3 @ Temp: 75 \u00b0C"}}