{"cas_no": "99-58-1", "cn_name": "3-\u6eb4-4-\u7532\u6c27\u57fa\u82ef\u7532\u9178", "en_name": ["3-Bromo-4-methoxybenzoic acid", "Benzoic acid, 3-bromo-4-methoxy-", "p-Anisic acid, 3-bromo-", "3-BromoAnisic acid", "3-Bromo-4-methoxybenzoic acid", "3-Bromo-p-anisic acid"], "SMILES": "C(O)(=O)C1=CC(Br)=C(OC)C=C1", "physical_data": {"Molecular Weight": "231.04", "Molecular Formula": "C8H7BrO3", "Melting Point": "217-218 \u00b0C"}}