{"cas_no": "99-55-8", "cn_name": "2-\u6c28\u57fa-4-\u785d\u57fa\u7532\u82ef", "en_name": ["2-Methyl-5-nitroaniline", "Benzenamine, 2-methyl-5-nitro-", "o-Toluidine, 5-nitro-", "Fast Scarlet G Base", "2-Methyl-5-nitrobenzenamine", "C.I. 37105", "Amarthol Fast Scarlet G Base", "Amarthol Fast Scarlet G Salt", "Azoene Fast Scarlet GC Base", "Azoene Fast Scarlet GC Salt", "Azofix Scarlet G Salt", "Azogene Fast Scarlet G", "C.I. Azoic Diazo Component 12", "Dainichi Fast Scarlet G Base", "Daito Scarlet Base G", "Devol Scarlet B", "Devol Scarlet G Salt", "Diabase Scarlet G", "Diazo Fast Scarlet G", "Fast Red SG Base", "Fast Scarlet G", "Fast Scarlet Base J", "Fast Scarlet M 4NT Base", "Fast Scarlet T Base", "Fast Scarlet GC Base", "Fast Scarlet G Salt", "Fast Scarlet J Salt", "Hiltonil Fast Scarlet G Base", "Hiltonil Fast Scarlet GC Base", "Hiltonil Fast Scarlet G Salt", "Kayaku Scarlet G Base", "Lake Scarlet G Base", "Lithosol Orange R Base", "Mitsui Scarlet G Base", "6-Methyl-3-nitroaniline", "Naphthanil Scarlet G Base", "Naphtoelan Fast Scarlet G Base", "Naphtoelan Fast Scarlet G Salt", "PNOT", "Scarlet G Base", "Scarlet Base Ciba II", "Scarlet Base Irga II", "Scarlet Base NSP", "Sugai Fast Scarlet G Base", "Symulon Scarlet G Base", "4-Nitro-2-aminotoluene", "3-Nitro-6-methylaniline", "1-Methyl-2-amino-4-nitrobenzene", "2-Methyl-5-nitroaniline", "5-Nitro-o-toluidine", "2-Amino-4-nitrotoluene", "5-Nitro-2-toluidine", "5-Nitro-2-methylaniline", "1-Amino-2-methyl-5-nitrobenzene", "NSC 8947", "(2-Methyl-5-nitrophenyl)amine", "Scarlet G", "Dycosbase Scarlet G Base", "Icho Salt Scarlet G", "Conazoic Diazo AB", "Azoene Fast Scarlet G Salt", "Scarlet Base G"], "SMILES": "N(=O)(=O)C1=CC(N)=C(C)C=C1", "physical_data": {"Molecular Weight": "152.15", "Molecular Formula": "C7H8N2O2", "Melting Point": "107-108 \u00b0C"}}