{"cas_no": "99-57-0", "cn_name": "2-\u6c28\u57fa-4-\u785d\u57fa\u82ef\u915a", "en_name": ["2-Amino-4-nitrophenol", "Phenol, 2-amino-4-nitro-", "2-Amino-4-nitrophenol", "C.I. 76530", "p-Nitro-o-aminophenol", "4-Nitro-2-aminophenol", "2-Hydroxy-5-nitroaniline", "4-Nitro-2-amino-1-hydroxybenzene", "1-Amino-2-hydroxy-5-nitrobenzene", "1-Hydroxy-2-amino-4-nitrobenzene", "5-Nitro-2-hydroxyaniline", "NSC 4664"], "SMILES": "N(=O)(=O)C1=CC(N)=C(O)C=C1", "physical_data": {"Molecular Weight": "154.12", "Molecular Formula": "C6H6N2O3", "Melting Point": "145-147 \u00b0C"}}