{"cas_no": "99-51-4", "cn_name": "4-\u785d\u57fa\u90bb\u4e8c\u7532\u82ef", "en_name": ["4-Nitro-o-xylene", "Benzene, 1,2-dimethyl-4-nitro-", "o-Xylene, 4-nitro-", "1,2-Dimethyl-4-nitrobenzene", "4-Nitro-1,2-dimethylbenzene", "3,4-Dimethyl-1-nitrobenzene", "4-Nitro-o-xylene", "NSC 66555"], "SMILES": "N(=O)(=O)C1=CC(C)=C(C)C=C1", "physical_data": {"Molecular Weight": "151.16", "Molecular Formula": "C8H9NO2", "Boiling Point": "254 \u00b0C @ Press: 760 Torr", "Melting Point": "30-31 \u00b0C"}}