{"cas_no": "99-56-9", "cn_name": "4-\u785d\u57fa\u90bb\u82ef\u4e8c\u80fa", "en_name": ["4-Nitro-1,2-phenylenediamine", "1,2-Benzenediamine, 4-nitro-", "o-Phenylenediamine, 4-nitro-", "4-Nitro-1,2-benzenediamine", "C.I. 76020", "4-Nitro-1,2-diaminobenzene", "4-Nitro-o-phenylenediamine", "4-Nitro-1,2-phenylenediamine", "p-Nitro-o-phenylenediamine", "1,2-Diamino-4-nitrobenzene", "3,4-Diaminonitrobenzene", "2-Amino-4-nitroaniline", "4-Nitro-2-aminoaniline", "2-Amino-5-nitroaniline", "NSC 5378", "(2-Amino-4-nitrophenyl)amine", "Ancamine 2730"], "SMILES": "N(=O)(=O)C1=CC(N)=C(N)C=C1", "physical_data": {"Molecular Weight": "153.14", "Molecular Formula": "C6H7N3O2", "Melting Point": "199-200 \u00b0C"}}