{"cas_no": "99-52-5", "cn_name": "4-\u785d\u57fa-2-\u7532\u82ef\u80fa", "en_name": ["2-Amino-5-nitrotoluene", "Benzenamine, 2-methyl-4-nitro-", "o-Toluidine, 4-nitro-", "2-Methyl-4-nitrobenzenamine", "Ansibases Red RL", "Azoene Fast Red GL Base", "Azogene Fast Red NRL Salt", "Azogene Fast Red RL", "Daito Red Base RL", "Devol Red RL", "Devol Red Salt E", "Diabase Red RL", "Fast Red 5NT", "Fast Red Base RL", "Fast Red RL Base", "Fast Red 5NT Salt", "Fast Red Salt RL", "Hiltonil Fast Red RL Base", "Hiltosal Fast Red RL Salt", "Kako Red RL Base", "Kayaku Red RL Base", "Meisei Fast Red RL Base", "Mitsui Red RL Base", "Naphtoelan Red RL Base", "Red Base Ciba X", "Red Base Irga X", "Red Base NRL", "Red RL Base", "Sanyo Fast Red RL Base", "Sanyo Fast Red Salt RL", "Spectrolene Red RL", "Symulon Red RL Base", "Tulabase Fast Red RL", "Yamada Fast Red RL Base", "4-Nitro-6-methylaniline", "2-Amino-5-nitrotoluene", "4-Nitro-o-toluidine", "5-Nitro-2-aminotoluene", "1-Amino-2-methyl-4-nitrobenzene", "2-Methyl-4-nitrophenylamine", "2-Amino-1-methyl-5-nitrobenzene", "MNA", "MNA (optical crystal)", "2-Methyl-p-nitroaniline", "4-Nitro-2-methylaniline", "3-Methyl-4-aminonitrobenzene", "4-Nitro-2-toluidine", "NSC 2075", "NSC 5508", "Red base RL"], "SMILES": "N(=O)(=O)C1=CC(C)=C(N)C=C1", "physical_data": {"Molecular Weight": "152.15", "Molecular Formula": "C7H8N2O2", "Melting Point": "133.5 \u00b0C"}}