{"cas_no": "99-50-3", "cn_name": "\u539f\u513f\u8336\u9178", "en_name": ["Protocatechuic acid", "Benzoic acid, 3,4-dihydroxy-", "Protocatechuic acid", "3,4-Dihydroxybenzoic acid", "4-Carboxy-1,2-dihydroxybenzene", "4,5-Dihydroxybenzoic acid", "NSC 16631", "1,2-Dihydroxybenzene-4-carboxylic acid", "Protocatechoic acid"], "SMILES": "C(O)(=O)C1=CC(O)=C(O)C=C1", "physical_data": {"Molecular Weight": "154.12", "Molecular Formula": "C7H6O4", "Melting Point": "194 \u00b0C"}}