{"cas_no": "99-53-6", "cn_name": "2-\u7532\u57fa-4-\u785d\u57fa\u82ef\u915a", "en_name": ["2-Methyl-4-nitrophenol", "Phenol, 2-methyl-4-nitro-", "o-Cresol, 4-nitro-", "2-Methyl-4-nitrophenol", "p-Nitro-o-cresol", "4-Nitro-o-cresol", "4-Nitro-2-methylphenol", "2-Hydroxy-5-nitrotoluene", "NSC 1022", "1-Hydroxy-2-methyl-4-nitrobenzene"], "SMILES": "N(=O)(=O)C1=CC(C)=C(O)C=C1", "physical_data": {"Molecular Weight": "153.14", "Molecular Formula": "C7H7NO3", "Melting Point": "96 \u00b0C"}}