{"cas_no": "99-62-7", "cn_name": "1,3-\u4e8c\u5f02\u4e19\u57fa\u82ef", "en_name": ["1,3-Diisopropylbenzene", "Benzene, 1,3-bis(1-methylethyl)-", "Benzene, m-diisopropyl-", "1,3-Bis(1-methylethyl)benzene", "1,3-Diisopropylbenzene", "m-Di-iso-propylbenzene", "m-Diisopropylbenzene", "m-Diisopropylbenzene", "3,5-Diisopropylbenzene", "1,3-Di(propan-2-yl)benzene", "1,3-Bis(propan-2-yl)benzene"], "SMILES": "C(C)(C)C1=CC(C(C)C)=CC=C1", "physical_data": {"Molecular Weight": "162.27", "Molecular Formula": "C12H18", "Boiling Point": "203.2 \u00b0C @ Press: 760 Torr", "Melting Point": "-61 \u00b0C", "Density": "0.8559 g/cm\u00b3 @ Temp: 20 \u00b0C"}}