{"cas_no": "99-67-2", "cn_name": "\u4e19\u620a\u9178\u76f8\u5173\u7269\u8d28A", "en_name": ["2-(2-Propenyl)-4-pentenoic acid", "4-Pentenoic acid, 2-(2-propen-1-yl)-", "4-Pentenoic acid, 2-allyl-", "4-Pentenoic acid, 2-(2-propenyl)-", "2-(2-Propen-1-yl)-4-pentenoic acid", "2-Allyl-4-pentenoic acid", "Acetic acid, di-2-propenyl-", "Diallylacetic acid", "\u03b1,\u03b1-Diallylacetic acid", "2-(2-Propenyl)-4-pentenoic acid", "1,6-Heptadiene-4-carboxylic acid", "Di-2-propenylacetic acid"], "SMILES": "C(CC=C)(CC=C)C(O)=O", "physical_data": {"Molecular Weight": "140.18", "Molecular Formula": "C8H12O2", "Boiling Point": "75-84 \u00b0C @ Press: 2 Torr", "Melting Point": "48 \u00b0C"}}