{"cas_no": "99-63-8", "cn_name": "\u95f4\u82ef\u4e8c\u7532\u9170\u6c2f", "en_name": ["Isophthaloyl chloride", "1,3-Benzenedicarbonyl dichloride", "Isophthaloyl chloride", "1,3-Benzenedicarbonyl chloride", "Isophthalic acid chloride", "Isophthalic acid dichloride", "Isophthaloyl dichloride", "Isophthalyl chloride", "Isophthalyl dichloride", "m-Phthalic dichloride", "m-Phthaloyl chloride", "Isophthalic chloride", "m-Benzenedicarbonyl chloride", "Isothaloyl chloride", "m-Phthaloyl dichloride", "1,3-Bis(chlorocarbonyl)benzene", "1,3-Di(chlorocarbonyl)benzene", "NSC 41884", "Isoterephthaloyl dichloride"], "SMILES": "C(Cl)(=O)C1=CC(C(Cl)=O)=CC=C1", "physical_data": {"Molecular Weight": "203.02", "Molecular Formula": "C8H4Cl2O2", "Boiling Point": "276 \u00b0C", "Melting Point": "43-44 \u00b0C", "Density": "1.3880 g/cm\u00b3 @ Temp: 17 \u00b0C"}}