{"cas_no": "99-65-0", "cn_name": "1,3-\u4e8c\u785d\u57fa\u82ef", "en_name": ["1,3-Dinitrobenzene", "Benzene, 1,3-dinitro-", "Benzene, m-dinitro-", "1,3-Dinitrobenzene", "m-Dinitrobenzene", "DNB", "Meta-dinitrobenzene", "m-Dinitrobenzene", "NSC 7189", "DNB (explosive)"], "SMILES": "N(=O)(=O)C1=CC(N(=O)=O)=CC=C1", "physical_data": {"Molecular Weight": "168.11", "Molecular Formula": "C6H4N2O4", "Boiling Point": "302.8 \u00b0C @ Press: 770 Torr", "Melting Point": "89-90 \u00b0C", "Density": "1.575 g/cm\u00b3 @ Temp: 18 \u00b0C"}}