{"cas_no": "99-61-6", "cn_name": "\u95f4\u785d\u57fa\u82ef\u7532\u919b", "en_name": ["3-Nitrobenzaldehyde", "Benzaldehyde, 3-nitro-", "Benzaldehyde, m-nitro-", "3-Nitrobenzaldehyde", "m-Nitrobenzaldehyde", "5-Nitrobenzaldehyde", "NSC 5504", "3-Nitrophenylcarboxaldehyde", "3-Nitrobenzenecarboxaldehyde"], "SMILES": "N(=O)(=O)C1=CC(C=O)=CC=C1", "physical_data": {"Molecular Weight": "151.12", "Molecular Formula": "C7H5NO3", "Boiling Point": "164 \u00b0C", "Melting Point": "58.5 \u00b0C"}}