{"cas_no": "99-64-9", "cn_name": "\u95f4\u4e8c\u7532\u6c28\u57fa\u82ef\u7532\u9178", "en_name": ["3-(Dimethylamino)benzoic acid", "Benzoic acid, 3-(dimethylamino)-", "Benzoic acid, m-(dimethylamino)-", "3-(Dimethylamino)benzoic acid", "m-(Dimethylamino)benzoic acid", "m-(N,N-Dimethylamino)benzoic acid", "3-(N,N-Dimethylamino)benzoic acid", "N,N-Dimethyl-3-carboxyaniline", "N,N-Dimethyl-3-aminobenzoic acid", "NSC 7197", "DMAB"], "SMILES": "C(O)(=O)C1=CC(N(C)C)=CC=C1", "physical_data": {"Molecular Weight": "165.19", "Molecular Formula": "C9H11NO2", "Melting Point": "150 \u00b0C", "Density": "1.27 g/cm\u00b3"}}