{"cas_no": "99-60-5", "cn_name": "2-\u6c2f-4-\u785d\u57fa\u82ef\u7532\u9178", "en_name": ["2-Chloro-4-nitrobenzoic acid", "Benzoic acid, 2-chloro-4-nitro-", "2-Chloro-4-nitrobenzoic acid", "NSC 150", "4-Nitro-2-chlorobenzoic acid"], "SMILES": "N(=O)(=O)C1=CC(Cl)=C(C(O)=O)C=C1", "physical_data": {"Molecular Weight": "201.56", "Molecular Formula": "C7H4ClNO4", "Melting Point": "140 \u00b0C"}}