{"cas_no": "99-68-3", "cn_name": "2-(\u7fa7\u57fa\u7532\u57fa\u786b\u4ee3)\u4e01\u4e8c\u919b", "en_name": ["2-[(Carboxymethyl)thio]butanedioic acid", "Butanedioic acid, 2-[(carboxymethyl)thio]-", "Butanedioic acid, [(carboxymethyl)thio]-", "Succinic acid, [(carboxymethyl)thio]-", "2-[(Carboxymethyl)thio]butanedioic acid", "Carboxymethylmercaptosuccinic acid", "[(Carboxymethyl)thio]succinic acid", "2-((Carboxymethyl)thio)succinic acid", "NSC 59711", "2-[(Carboxymethyl)sulfanyl]succinic acid"], "SMILES": "C(SCC(O)=O)(CC(O)=O)C(O)=O", "physical_data": {"Molecular Weight": "208.19", "Molecular Formula": "C6H8O6S", "Melting Point": "139 \u00b0C"}}