{"cas_no": "99-66-1", "cn_name": "\u4e19\u620a\u9178", "en_name": ["Valproic acid", "Pentanoic acid, 2-propyl-", "Valeric acid, 2-propyl-", "2-Propylpentanoic acid", "Acetic acid, dipropyl-", "Dipropylacetic acid", "2-Propylvaleric acid", "n-Dipropylacetic acid", "DPA", "4-Heptanecarboxylic acid", "Valproic acid", "Depakine", "Ergenyl", "Mylproin", "44089", "NSC 93819", "Depakine-chrono", "Stavzor", "2,2-Di-n-propylacetic acid", "Valcote", "Sigma V 0033000", "MeSH ID: D014635"], "SMILES": "C(CCC)(CCC)C(O)=O", "physical_data": {"Molecular Weight": "144.21", "Molecular Formula": "C8H16O2", "Boiling Point": "221-222 \u00b0C @ Press: 760.0 Torr", "Melting Point": "25 \u00b0C", "Density": "0.904 g/cm\u00b3 @ Temp: 25 \u00b0C"}}