{"cas_no": "99-77-4", "cn_name": "\u5bf9\u785d\u57fa\u82ef\u7532\u9178\u4e59\u916f", "en_name": ["Ethyl 4-nitrobenzoate", "Benzoic acid, 4-nitro-, ethyl ester", "Benzoic acid, p-nitro-, ethyl ester", "Ethyl p-nitrobenzoate", "Ethyl 4-nitrobenzoate", "4-Nitrobenzoic acid ethyl ester", "4-(Ethoxycarbonyl)nitrobenzene", "4-Ethoxycarbonyl-1-nitrobenzene", "NSC 6763"], "SMILES": "C(OCC)(=O)C1=CC=C(N(=O)=O)C=C1", "physical_data": {"Molecular Weight": "195.17", "Molecular Formula": "C9H9NO4", "Boiling Point": "186.3 \u00b0C", "Melting Point": "57 \u00b0C"}}