{"cas_no": "99-76-3", "cn_name": "\u5c3c\u6cca\u91d1\u7532\u916f", "en_name": ["Methylparaben", "Benzoic acid, 4-hydroxy-, methyl ester", "Benzoic acid, p-hydroxy-, methyl ester", "p-Hydroxybenzoic acid methyl ester", "Maseptol", "Methylben", "Methyl chemosept", "Methyl p-hydroxybenzoate", "Methylparaben", "Methyl Parasept", "Metoxyde", "Moldex", "Nipagin", "Paridol", "Preserval M", "Septos", "Solbrol M", "Tegosept M", "4-Hydroxybenzoic acid methyl ester", "Methyl 4-hydroxybenzoate", "p-Methoxycarbonylphenol", "Methaben", "p-Carbomethoxyphenol", "4-(Methoxycarbonyl)phenol", "Methyl Butex", "Preserval", "Solbrol", "Nipagin M", "Metaben", "4-(Carbomethoxy)phenol", "Metagin", "Mekkings M", "Killitol", "Para M", "E 218", "E 218 (preservative)", "NSC 3827", "NSC 406127", "Danisol M", "Paraben M", "4-Hydroxymethyl benzoate", "Tegasept Methyl", "Methyl 4-(3\u2032-butenyloxy)benzoate", "Ueno Me Paraben NF", "MEKKINS-M"], "SMILES": "C(OC)(=O)C1=CC=C(O)C=C1", "physical_data": {"Molecular Weight": "152.15", "Molecular Formula": "C8H8O3", "Boiling Point": "265 \u00b0C", "Melting Point": "131 \u00b0C", "Density": "1.1208 g/cm\u00b3 @ Temp: 137.2 \u00b0C"}}