{"cas_no": "99-75-2", "cn_name": "\u5bf9\u7532\u57fa\u82ef\u7532\u9178\u7532\u916f", "en_name": ["Methyl 4-methylbenzoate", "Benzoic acid, 4-methyl-, methyl ester", "p-Toluic acid, methyl ester", "Methyl p-toluate", "p-Carbomethoxytoluene", "Methyl 4-toluate", "Methyl 4-methylbenzoate", "Methyl p-methylbenzoate", "4-(Methoxycarbonyl)toluene", "4-Methylbenzoic acid methyl ester", "Methyl p-toluenecarboxylate", "p-(Methoxycarbonyl)toluene", "NSC 24761"], "SMILES": "C(OC)(=O)C1=CC=C(C)C=C1", "physical_data": {"Molecular Weight": "150.17", "Molecular Formula": "C9H10O2", "Boiling Point": "222.5 \u00b0C @ Press: 760 Torr", "Melting Point": "33.2 \u00b0C", "Density": "1.058 g/cm\u00b3 @ Temp: 25 \u00b0C"}}