{"cas_no": "99-73-0", "cn_name": "2,4'-\u4e8c\u6eb4\u82ef\u4e59\u916e", "en_name": ["4-Bromophenacyl bromide", "Ethanone, 2-bromo-1-(4-bromophenyl)-", "Acetophenone, 2,4\u2032-dibromo-", "2-Bromo-1-(4-bromophenyl)ethanone", "p-Bromophenacyl bromide", "p,\u03b1-Dibromoacetophenone", "2,4\u2032-Dibromoacetophenone", "\u03b1,p-Dibromoacetophenone", "4-Bromophenacyl bromide", "2-Bromo-4\u2032-bromoacetophenone", "Bromomethyl p-bromophenyl ketone", "\u03c9,4-Dibromoacetophenone", "Bromomethyl 4-bromophenyl ketone", "4,\u03b1-Dibromoacetophenone", "2-Bromo-1-(4-bromophenyl)-1-ethanone", "\u03b1-Bromo-4-bromoacetophenone", "\u03b1,4-Dibromoacetophenone", "\u03b1-Bromo-p-bromoacetophenone", "4-Bromo(bromoacetyl)benzene", "NSC 6224", "\u03b1,4\u2032-Dibromoacetophenone", "2-(4-Bromophenyl)-2-oxoethyl bromide", "GSK-3\u03b2 Inhibitor VII", "GSK 3 inhibitor VII", "4\u2032,2-Dibromoacetophenone"], "SMILES": "C(CBr)(=O)C1=CC=C(Br)C=C1", "physical_data": {"Molecular Weight": "277.94", "Molecular Formula": "C8H6Br2O", "Boiling Point": "53-55 \u00b0C @ Press: 30 Torr", "Melting Point": "111 \u00b0C"}}