{"cas_no": "99-71-8", "cn_name": "4-\u4ef2\u4e01\u57fa\u82ef\u915a", "en_name": ["4-sec-Butylphenol", "Phenol, 4-(1-methylpropyl)-", "Phenol, p-sec-butyl-", "4-(1-Methylpropyl)phenol", "p-sec-Butylphenol", "4-sec-Butylphenol", "4-(2-Butyl)phenol", "NSC 2210", "(\u00b1)-4-sec-Butylphenol", "4-(Butan-2-yl)phenol"], "SMILES": "C(CC)(C)C1=CC=C(O)C=C1", "physical_data": {"Molecular Weight": "150.22", "Molecular Formula": "C10H14O", "Boiling Point": "241 \u00b0C", "Melting Point": "61.5 \u00b0C", "Density": "0.9883 g/cm\u00b3 @ Temp: 20 \u00b0C"}}