{"cas_no": "99-89-8", "cn_name": "4-\u5f02\u4e19\u57fa\u82ef\u915a", "en_name": ["4-Isopropylphenol", "Phenol, 4-(1-methylethyl)-", "Phenol, p-isopropyl-", "4-(1-Methylethyl)phenol", "p-Isopropylphenol", "Australol", "4-Isopropylphenol", "p-Cumenol", "NSC 1888", "4-(Propan-2-yl)phenol"], "SMILES": "C(C)(C)C1=CC=C(O)C=C1", "physical_data": {"Molecular Weight": "136.19", "Molecular Formula": "C9H12O", "Boiling Point": "230 \u00b0C", "Melting Point": "62.3 \u00b0C", "Density": "0.970 g/cm\u00b3 @ Temp: 15 \u00b0C"}}