{"cas_no": "99-86-5", "cn_name": "\u677e\u6cb9\u70ef", "en_name": ["\u03b1-Terpinene", "1,3-Cyclohexadiene, 1-methyl-4-(1-methylethyl)-", "p-Mentha-1,3-diene", "1-Methyl-4-(1-methylethyl)-1,3-cyclohexadiene", "Terpilene", "\u03b1-Terpinene", "\u03b1-Terpinen", "4-Isopropyl-1-methyl-1,3-cyclohexadiene", "1-Methyl-4-isopropyl-1,3-cyclohexadiene", "1-Isopropyl-4-methyl-1,3-cyclohexadiene", "alpha-Terpinene", "1-Methyl-4-propan-2-ylcyclohexa-1,3-diene"], "SMILES": "C(C)(C)C=1CCC(C)=CC1", "physical_data": {"Molecular Weight": "136.23", "Molecular Formula": "C10H16", "Boiling Point": "175 \u00b0C", "Melting Point": "&lt;25 \u00b0C", "Density": "0.8529 g/cm\u00b3 @ Temp: 23 \u00b0C"}}