{"cas_no": "99-88-7", "cn_name": "4-\u5f02\u4e19\u57fa\u82ef\u80fa", "en_name": ["4-Isopropylaniline", "Benzenamine, 4-(1-methylethyl)-", "Cumidine", "4-(1-Methylethyl)benzenamine", "4-Aminocumene", "4-Amino-1-isopropylbenzene", "\u03b2-(4-Aminophenyl)propane", "p-Cumidine", "p-Isopropylaniline", "4-Isopropylaniline", "4-Aminoisopropylbenzene", "1-Amino-4-isopropylbenzene", "4-Isopropylphenylamine", "4-(2-Propyl)aniline", "4-Isopropylbenzenamine", "NSC 7198", "[4-(1-Methylethyl)phenyl]amine", "4-(Propan-2-yl)aniline", "p-Aminocumene"], "SMILES": "C(C)(C)C1=CC=C(N)C=C1", "physical_data": {"Molecular Weight": "135.21", "Molecular Formula": "C9H13N", "Boiling Point": "225 \u00b0C", "Melting Point": "163-164 \u00b0C"}}