{"cas_no": "99-82-1", "cn_name": "\u5bf9\u5b5f\u70f7", "en_name": ["1-Isopropyl-4-methylcyclohexane", "Cyclohexane, 1-methyl-4-(1-methylethyl)-", "p-Menthane", "1-Methyl-4-(1-methylethyl)cyclohexane", "1-Isopropyl-4-methylcyclohexane", "1-Methyl-4-isopropylcyclohexane", "4-Methyl-1-(1-methylethyl)cyclohexane", "Woody River 10", "1-Methyl-4-propan-2-ylcyclohexane", "5-Methyl-2-(1-methylethyl)cyclohexane"], "SMILES": "C(C)(C)C1CCC(C)CC1", "physical_data": {"Molecular Weight": "140.27", "Molecular Formula": "C10H20", "Boiling Point": "170.9 \u00b0C @ Press: 725 Torr", "Melting Point": "-89.84 \u00b0C", "Density": "0.8039 g/cm\u00b3 @ Temp: 20 \u00b0C"}}