{"cas_no": "99-83-2", "cn_name": "\u6c34\u82b9\u70ef", "en_name": ["alpha-Phellandrene", "1,3-Cyclohexadiene, 2-methyl-5-(1-methylethyl)-", "p-Mentha-1,5-diene", "2-Methyl-5-(1-methylethyl)-1,3-cyclohexadiene", "\u03b1-Phellandrene", "5-Isopropyl-2-methyl-1,3-cyclohexadiene", "Menthadiene", "(\u00b1)-\u03b1-Phellandrene", "alpha-Phellandrene", "6-Isopropyl-3-methyl-1,3-Cyclohexadiene", "Alda-364", "2-Methyl-5-propan-2-ylcyclohexa-1,3-diene"], "SMILES": "C(C)(C)C1CC=C(C)C=C1", "physical_data": {"Molecular Weight": "136.23", "Molecular Formula": "C10H16", "Boiling Point": "172 \u00b0C", "Melting Point": "&lt;25 \u00b0C", "Density": "0.848 g/cm\u00b3 @ Temp: 15 \u00b0C"}}