{"cas_no": "99-85-4", "cn_name": "\u03b3-\u677e\u6cb9\u70ef", "en_name": ["\u03b3-Terpinene", "1,4-Cyclohexadiene, 1-methyl-4-(1-methylethyl)-", "p-Mentha-1,4-diene", "1-Methyl-4-(1-methylethyl)-1,4-cyclohexadiene", "Crithmene", "gamma-Terpinene", "Moslene", "\u03b3-Terpinene", "\u03b3-Terpinen", "4-Isopropyl-1-methyl-1,4-cyclohexadiene", "1-Methyl-4-isopropyl-1,4-cyclohexadiene", "1-Isopropyl-4-methyl-1,4-cyclohexadiene", "NSC 21448", "1-Methyl-4-(propan-2-yl)cyclohexa-1,4-diene", "1-Methyl-4-propan-2-ylcyclohexa-1,4-diene"], "SMILES": "C(C)(C)C=1CC=C(C)CC1", "physical_data": {"Molecular Weight": "136.23", "Molecular Formula": "C10H16", "Boiling Point": "183 \u00b0C", "Melting Point": "-10 \u00b0C", "Density": "0.849 g/cm\u00b3 @ Temp: 20 \u00b0C"}}