{"cas_no": "99-87-6", "cn_name": "4-\u5f02\u4e19\u57fa\u7532\u82ef", "en_name": ["p-Cymene", "Benzene, 1-methyl-4-(1-methylethyl)-", "p-Cymene", "1-Methyl-4-(1-methylethyl)benzene", "Camphogen", "p-Isopropyltoluene", "p-Cymol", "Dolcymene", "1-Methyl-4-isopropylbenzene", "1-Isopropyl-4-methylbenzene", "p-Methylisopropylbenzene", "2-p-Tolylpropane", "4-Isopropyl-1-methylbenzene", "p-Methylcumene", "4-Isopropyltoluene", "para-Cymene", "4-Methylisopropylbenzene", "4-Cymene", "NSC 4162", "1-Methyl-4-(propan-2-yl)benzene"], "SMILES": "C(C)(C)C1=CC=C(C)C=C1", "physical_data": {"Molecular Weight": "134.22", "Molecular Formula": "C10H14", "Boiling Point": "177.10 \u00b0C", "Melting Point": "-68.9 \u00b0C", "Density": "0.8610 g/cm\u00b3 @ Temp: 20 \u00b0C"}}