{"cas_no": "99-81-0", "cn_name": "2-\u6eb4-4'-\u785d\u57fa\u82ef\u4e59\u916e", "en_name": ["4-Nitrophenacyl bromide", "Ethanone, 2-bromo-1-(4-nitrophenyl)-", "Acetophenone, 2-bromo-4\u2032-nitro-", "2-Bromo-1-(4-nitrophenyl)ethanone", "\u03b1-Bromo-4-nitroacetophenone", "4\u2032-Nitro-2-bromoacetophenone", "4-Nitrophenacyl bromide", "p-Nitrophenacyl bromide", "p-Nitro-\u03b1-bromoacetophenone", "\u03b1-Bromo-p-nitroacetophenone", "2-Bromo-p-nitroacetophenone", "2-Bromo-4\u2032-nitroacetophenone", "\u03c9-Bromo-p-nitroacetophenone", "Bromomethyl p-nitrophenyl ketone", "\u03c9-Bromo-4-nitroacetophenone", "Bromomethyl 4-nitrophenyl ketone", "4-Nitro-\u03b1-bromoacetophenone", "2-Bromo-1-(4-nitrophenyl)ethan-1-one", "NSC 9805", "\u03b1-Bromo-4\u2032-nitroacetophenone"], "SMILES": "C(CBr)(=O)C1=CC=C(N(=O)=O)C=C1", "physical_data": {"Molecular Weight": "244.04", "Molecular Formula": "C8H6BrNO3", "Melting Point": "95-97 \u00b0C"}}