{"cas_no": "99-96-7", "cn_name": "\u5bf9\u7f9f\u57fa\u82ef\u7532\u9178", "en_name": ["4-Hydroxybenzoic acid", "Benzoic acid, 4-hydroxy-", "Benzoic acid, p-hydroxy-", "4-Hydroxybenzoic acid", "p-Hydroxybenzoic acid", "p-Salicylic acid", "4-Carboxyphenol", "Paraben-acid", "p-Carboxyphenol", "NSC 4961", "p-Hydroxyl benzoic acid"], "SMILES": "C(O)(=O)C1=CC=C(O)C=C1", "physical_data": {"Molecular Weight": "138.12", "Molecular Formula": "C7H6O3", "Melting Point": "214.5 \u00b0C", "Density": "1.46 g/cm\u00b3 @ Temp: 25 \u00b0C"}}