{"cas_no": "99-92-3", "cn_name": "4-\u6c28\u57fa\u82ef\u4e59\u916e", "en_name": ["p-Aminoacetophenone", "Ethanone, 1-(4-aminophenyl)-", "Acetophenone, 4\u2032-amino-", "Acetophenone, p-amino-", "1-(4-Aminophenyl)ethanone", "p-Aminoacetylbenzene", "4-Acetylaniline", "p-Acetylaniline", "4\u2032-Aminoacetophenone", "1-Acetyl-4-aminobenzene", "p-Aminophenyl methyl ketone", "4-Aminophenyl methyl ketone", "4-Acetylphenylamine", "p-Aminoacetophenone", "p-Acetylphenylamine", "NSC 3242", "T 3788", "1-(4-Aminophenyl)ethan-1-one"], "SMILES": "C(C)(=O)C1=CC=C(N)C=C1", "physical_data": {"Molecular Weight": "135.16", "Molecular Formula": "C8H9NO", "Boiling Point": "293-295 \u00b0C", "Melting Point": "106 \u00b0C", "Density": "1.20 g/cm\u00b3"}}