{"cas_no": "99-97-8", "cn_name": "N,N-\u4e8c\u7532\u57fa\u5bf9\u7532\u82ef\u80fa", "en_name": ["Dimethyl-p-toluidine", "Benzenamine, N,N,4-trimethyl-", "p-Toluidine, N,N-dimethyl-", "N,N,4-Trimethylbenzenamine", "N,N-Dimethyl-p-toluidine", "p-Methyl-N,N-dimethylaniline", "Dimethyl-p-toluidine", "N,N-Dimethyl-p-tolylamine", "N,N-Dimethyl-4-methylaniline", "p,N,N-Trimethylaniline", "N,N,4-Trimethylaniline", "p-(Dimethylamino)toluene", "N,N-Dimethyl-p-methylphenylamine", "N,N-Dimethyl-1,4-toluidine", "N,N-Dimethyl-p-toluidene", "1-(Dimethylamino)-4-methylbenzene", "NSC 1785", "NL 65-100", "4-Dimethylamino-1-methylbenzene", "N,N-Dimethyl-p-methylaniline", "4-(Dimethylamino)toluene", "FirstCure DMPT", "AC 103 (amine)", "AC 103"], "SMILES": "N(C)(C)C1=CC=C(C)C=C1", "physical_data": {"Molecular Weight": "135.21", "Molecular Formula": "C9H13N", "Boiling Point": "215 \u00b0C", "Melting Point": "113-115 \u00b0C", "Density": "0.9 g/cm\u00b3"}}