{"cas_no": "99-98-9", "cn_name": "4-\u6c28\u57fa-N,N-\u4e8c\u7532\u57fa\u82ef\u80fa", "en_name": ["N,N-Dimethyl-p-phenylenediamine", "1,4-Benzenediamine, N1,N1-dimethyl-", "p-Phenylenediamine, N,N-dimethyl-", "1,4-Benzenediamine, N,N-dimethyl-", "N1,N1-Dimethyl-1,4-benzenediamine", "C.I. 76075", "p-Aminodimethylaniline", "N,N-Dimethyl-p-phenylenediamine", "Dimethyl-p-phenylenediamine", "p-Amino-N,N-dimethylaniline", "4-(Dimethylamino)aniline", "p-(Dimethylamino)aniline", "N,N-Dimethyl-1,4-benzenediamine", "p-(Dimethylamino)phenylamine", "4-Amino-N,N-dimethylaniline", "DMPD", "N,N-Dimethyl-1,4-phenylenediamine", "N,N-Dimethyl-p-benzenediamine", "N,N-Dimethyl-1,4-diaminobenzene", "1-Amino-4-(dimethylamino)benzene", "4-(Dimethylamino)benzenamine", "4-(N,N-Dimethylamino)aniline", "[4-(Dimethylamino)phenyl]amine", "4-(N,N-Dimethylamino)phenylamine", "NSC 1493", "N-(4-Aminophenyl)-N,N-dimethylamine", "(4-Aminophenyl)dimethylamine", "1-N,1-N-Dimethylbenzene-1,4-diamine", "4-Amino-1-(dimethylamino)benzene"], "SMILES": "N(C)(C)C1=CC=C(N)C=C1", "physical_data": {"Molecular Weight": "136.19", "Molecular Formula": "C8H12N2", "Boiling Point": "262 \u00b0C", "Melting Point": "53 \u00b0C", "Density": "1.036 g/cm\u00b3 @ Temp: 20 \u00b0C"}}