{"cas_no": "99-91-2", "cn_name": "\u5bf9\u6c2f\u82ef\u4e59\u916e", "en_name": ["p-Chloroacetophenone", "Ethanone, 1-(4-chlorophenyl)-", "Acetophenone, 4\u2032-chloro-", "Acetophenone, p-chloro-", "1-(4-Chlorophenyl)ethanone", "p-Chloroacetophenone", "4\u2032-Chloroacetophenone", "Methyl p-chlorophenyl ketone", "p-Chlorophenyl methyl ketone", "Methyl 4-chlorophenyl ketone", "1-Acetyl-4-chlorobenzene", "4-Chlorophenyl methyl ketone", "4-Acetylchlorobenzene", "p-Acetylchlorobenzene", "1-(4-Chlorophenyl)-1-ethanone", "1-Chloro-4-acetylbenzene", "4-Acetyl-1-chlorobenzene", "NSC 6115", "1-(p-Chlorophenyl)ethanone", "4-Acetylphenyl chloride", "p-Chlorohypnone", "4-Chlorohypnone", "4-Chloro-1-acetylbenzene", "4-Chlorobenzene methyl ketone"], "SMILES": "C(C)(=O)C1=CC=C(Cl)C=C1", "physical_data": {"Molecular Weight": "154.59", "Molecular Formula": "C8H7ClO", "Boiling Point": "237 \u00b0C", "Melting Point": "20-21 \u00b0C", "Density": "1.1922 g/cm\u00b3 @ Temp: 20 \u00b0C"}}