{"cas_no": "99-90-1", "cn_name": "\u5bf9\u6eb4\u82ef\u4e59\u916e", "en_name": ["p-Bromoacetophenone", "Ethanone, 1-(4-bromophenyl)-", "Acetophenone, 4\u2032-bromo-", "Acetophenone, p-bromo-", "1-(4-Bromophenyl)ethanone", "p-Bromoacetophenone", "4\u2032-Bromoacetophenone", "Methyl p-bromophenyl ketone", "p-Bromophenyl methyl ketone", "4-Bromophenyl methyl ketone", "Methyl 4-bromophenyl ketone", "p-Acetylphenyl bromide", "p-Acetylbromobenzene", "1-Acetyl-4-bromobenzene", "1-(p-Bromophenyl)ethanone", "p-Bromphenyl methyl ketone", "4-Acetylphenyl bromide", "1-Bromo-4-acetylbenzene", "4-Acetylbromobenzene", "NSC 17541", "4-Acetyl-1-bromobenzene", "4-Bromohypnone", "4-Bromobenzene methyl ketone", "4-Bromo-1-acetylbenzene", "1-(4-Bromophenyl)ethan-1-one"], "SMILES": "C(C)(=O)C1=CC=C(Br)C=C1", "physical_data": {"Molecular Weight": "199.04", "Molecular Formula": "C8H7BrO", "Boiling Point": "257 \u00b0C", "Melting Point": "50.5 \u00b0C"}}