{"cas_no": "99-94-5", "cn_name": "\u5bf9\u7532\u57fa\u82ef\u7532\u9178", "en_name": ["p-Toluic acid", "Benzoic acid, 4-methyl-", "p-Toluic acid", "4-Methylbenzoic acid", "Crithminic acid", "p-Methylbenzoic acid", "p-Carboxytoluene", "p-Tolylcarboxylic acid", "p-Toluylic acid", "NSC 2215"], "SMILES": "C(O)(=O)C1=CC=C(C)C=C1", "physical_data": {"Molecular Weight": "136.15", "Molecular Formula": "C8H8O2", "Melting Point": "179.6 \u00b0C", "Density": "1.251 g/cm\u00b3"}}