{"cas_no": "99-99-0", "cn_name": "4-\u785d\u57fa\u7532\u82ef", "en_name": ["4-Nitrotoluene", "Benzene, 1-methyl-4-nitro-", "Toluene, p-nitro-", "1-Methyl-4-nitrobenzene", "p-Methylnitrobenzene", "p-Nitrotoluene", "4-Nitrotoluol", "PNT", "4-Nitrotoluene", "4-Methylnitrobenzene", "4-Methyl-1-nitrobenzene", "para-Nitrotoluene", "NSC 9579"], "SMILES": "N(=O)(=O)C1=CC=C(C)C=C1", "physical_data": {"Molecular Weight": "137.14", "Molecular Formula": "C7H7NO2", "Boiling Point": "238 \u00b0C", "Melting Point": "53-54 \u00b0C", "Density": "1.29 g/cm\u00b3"}}