{"cas_no": "99-93-4", "cn_name": "\u5bf9\u7f9f\u57fa\u82ef\u4e59\u916e", "en_name": ["4\u2032-Hydroxyacetophenone", "Ethanone, 1-(4-hydroxyphenyl)-", "Acetophenone, 4\u2032-hydroxy-", "Acetophenone, p-hydroxy-", "1-(4-Hydroxyphenyl)ethanone", "4-Acetylphenol", "Piceol", "Methyl p-hydroxyphenyl ketone", "p-Hydroxyacetophenone", "p-Hydroxyphenyl methyl ketone", "p-Acetylphenol", "4\u2032-Hydroxyacetophenone", "4-Hydroxyphenyl methyl ketone", "p-Acetophenol", "1-(4-Hydroxyphenyl)-1-ethanone", "Methyl 4-hydroxyphenyl ketone", "4-Acetophenol", "4-Hydroxyphenylethanone", "NSC 3698", "4-Hydroxyacetopenone", "Symsave H", "Symsave"], "SMILES": "C(C)(=O)C1=CC=C(O)C=C1", "physical_data": {"Molecular Weight": "136.15", "Molecular Formula": "C8H8O2", "Boiling Point": "147-148 \u00b0C", "Melting Point": "109.5 \u00b0C"}}