{"cas_no": "990-73-8", "cn_name": "\u67b8\u6a7c\u9178\u82ac\u592a\u5c3c", "en_name": ["Fentanyl citrate", "Propanamide, N-phenyl-N-[1-(2-phenylethyl)-4-piperidinyl]-, 2-hydroxy-1,2,3-propanetricarboxylate (1:1)", "Propionanilide, N-(1-phenethyl-4-piperidyl)-, citrate (1:1)", "McN-JR 4263-49", "Fentanyl citrate", "N-(1-Phenethyl-4-piperidinyl)propionanilide dihydrogen citrate", "N-(1-Phenethyl-4-piperidyl)propionanilide citrate", "Phentanyl citrate", "Sublimaze", "Leptanal", "R 5240", "McN-JR 4263", "Fentaz", "Duragesic", "Actiq", "Leptanol", "Pentanyl", "Oralet", "Oravescent", "Fentanil citrate", "NasalFent", "Onsolis", "Fentos Tape", "Instanyl"], "SMILES": "C(CC(O)=O)(CC(O)=O)(C(O)=O)O.N(C(CC)=O)(C1CCN(CCC2=CC=CC=C2)CC1)C3=CC=CC=C3", "physical_data": {"Molecular Weight": "", "Molecular Formula": "C22H28N2O.C6H8O7", "Melting Point": "149-151 \u00b0C"}}