{"cas_no": "990-91-0", "cn_name": "\u7126\u78f7\u9178\u56db\u82c4\u916f", "en_name": ["P,P,P\u2032,P\u2032-Tetrakis(phenylmethyl) (diphosphate)", "Diphosphoric acid, P,P,P\u2032,P\u2032-tetrakis(phenylmethyl) ester", "Pyrophosphoric acid, tetrabenzyl ester", "Diphosphoric acid, tetrakis(phenylmethyl) ester", "Benzyl pyrophosphate ([(C7H7O)2PO]2O)", "P,P,P\u2032,P\u2032-Tetrakis(phenylmethyl) (diphosphate)", "Tetrabenzyl pyrophosphate", "Tetrabenzyl diphosphate", "Dibenzyl [[bis-(benzyloxy)phosphoryl]oxy]phosphonate", "Diphosphoric acid tetrabenzyl ester"], "SMILES": "P(OP(OCC1=CC=CC=C1)(OCC2=CC=CC=C2)=O)(OCC3=CC=CC=C3)(OCC4=CC=CC=C4)=O", "physical_data": {"Molecular Weight": "538.47", "Molecular Formula": "C28H28O7P2", "Melting Point": "59-60 \u00b0C"}}