{"cas_no": "99009-85-5", "cn_name": "4-\u5f02\u4e01\u80fa\u57fa-3-\u785d\u57fa\u55b9\u5549", "en_name": ["N-(2-Methylpropyl)-3-nitro-4-quinolinamine", "4-Quinolinamine, N-(2-methylpropyl)-3-nitro-", "N-(2-Methylpropyl)-3-nitro-4-quinolinamine", "3-Nitro-4-(2-methylpropylamino)quinoline", "4-Isobutylamino-3-nitroquinoline"], "SMILES": "N(CC(C)C)C=1C2=C(N=CC1N(=O)=O)C=CC=C2", "physical_data": {"Molecular Weight": "245.28", "Molecular Formula": "C13H15N3O2", "Melting Point": "119-121 \u00b0C"}}