{"cas_no": "99010-64-7", "cn_name": "1-(2-\u7532\u57fa\u4e19\u57fa)-4-\u6c2f-1H-\u54aa\u5511\u5e76[4,5-c]\u55b9\u5549", "en_name": ["4-Chloro-1-isobutyl-1H-imidazo[4,5-c]quinoline", "1H-Imidazo[4,5-c]quinoline, 4-chloro-1-(2-methylpropyl)-", "4-Chloro-1-(2-methylpropyl)-1H-imidazo[4,5-c]quinoline", "NSC 672965", "4-Chloro-1-isobutyl-1H-imidazo[4,5-c]quinoline"], "SMILES": "C(C(C)C)N1C=2C=3C(N=C(Cl)C2N=C1)=CC=CC3", "physical_data": {"Molecular Weight": "259.73", "Molecular Formula": "C14H14ClN3", "Melting Point": "139-140 \u00b0C"}}