{"cas_no": "99011-02-6", "cn_name": "\u54aa\u55b9\u83ab\u7279", "en_name": ["Imiquimod", "1H-Imidazo[4,5-c]quinolin-4-amine, 1-(2-methylpropyl)-", "1-(2-Methylpropyl)-1H-imidazo[4,5-c]quinolin-4-amine", "S 26308", "R 837", "Imiquimod", "Aldara", "1-Isobutyl-1H-imidazo[4,5-c]quinolin-4-amine", "Beselna", "TMX 101", "Zyclara", "Keravort", "1-(2-Methylpropyl)imidazo[4,5-c]quinolin-4-amine", "1-Isobutyl-1H-imidazo[4,5-c]quinolin-4-ylamine", "Zartra"], "SMILES": "C(C(C)C)N1C=2C=3C(N=C(N)C2N=C1)=CC=CC3", "physical_data": {"Molecular Weight": "240.30", "Molecular Formula": "C14H16N4", "Melting Point": "292-294 \u00b0C"}}