{"cas_no": "99070-18-5", "cn_name": "2-(4-\u6eb4\u82ef\u57fa)\u4e01\u9178", "en_name": ["4-Bromo-\u03b1-ethylbenzeneacetic acid", "Benzeneacetic acid, 4-bromo-\u03b1-ethyl-", "Butyric acid, 2-(p-bromophenyl)-", "4-Bromo-\u03b1-ethylbenzeneacetic acid", "2-(4-Bromophenyl)butyric acid"], "SMILES": "C(C(O)=O)(CC)C1=CC=C(Br)C=C1", "physical_data": {"Molecular Weight": "243.10", "Molecular Formula": "C10H11BrO2", "Boiling Point": "88-90 \u00b0C @ Press: 1 Torr", "Melting Point": "85 \u00b0C"}}