{"cas_no": "991-84-4", "cn_name": "\u6297\u6c27\u5242 565", "en_name": ["2,4-Bis-(n-octylthio)-6-(4-hydroxy-3\u2032,5\u2032-di-tert-butylanilino)-1,3,5-triazine", "Phenol, 4-[[4,6-bis(octylthio)-1,3,5-triazin-2-yl]amino]-2,6-bis(1,1-dimethylethyl)-", "Phenol, 4-[[4,6-bis(octylthio)-s-triazin-2-yl]amino]-2,6-di-tert-butyl-", "4-[[4,6-Bis(octylthio)-1,3,5-triazin-2-yl]amino]-2,6-bis(1,1-dimethylethyl)phenol", "2,4-Bis-(n-octylthio)-6-(4-hydroxy-3,5-di-tert-butylanilino)-1,3,5-triazine", "2,4-Bis(octylthio)-6-(4-hydroxy-3,5-di-tert-butylanilino)-1,3,5-triazine", "2,4-Bis(octylthio)-6-(4-hydroxy-3,5-di-tert-butylanilino)-s-triazine", "Irganox 565", "Irganox RA 565", "2-(4-Hydroxy-3,5-di-tert-butylanilino)-4,6-bis(octylthio)-1,3,5-triazine", "6-(4-Hydroxy-3,5-di-tert-butylanilino)-2,4-bis(octylthio)-s-triazine", "6-(3,5-di-tert-Butyl-4-hydroxyanilino)-2,4-bis(n-octylthio)-s-triazine", "2,4-Bis(n-octylthio)-6-(3,5-di-tert-butyl-4-hydroxyphenylamino)-s-triazine", "2-(4-Hydroxy-3,5-di-tert-butylanilino)-4,6-di(octylthio)-s-triazine", "2-(4-Hydroxy-3,5-di-tert-butylanilino)-4,6-bis(octylthio)-s-triazine", "6-(4-Hydroxy-3,5-di-tert-butylanilino)-2,4-bis(n-octylthio)-1,3,5-triazine", "6-(3,5-Di-tert-butyl-4-hydroxyanilino)-2,4-bis(octylthio)-s-triazine", "2,4-Bis(octylthio)-6-(3,5-di-tert-butyl-4-hydroxyanilino)-s-triazine", "1-(3,5-Di-tert-butyl-4-hydroxyanilino)-3,5-bis(octylthio)-s-triazine", "6-(4-Hydroxy-3,5-di-tert-butylanilino)-2,4-bis(octylthio)-1,3,5-triazine", "2,4-Bis(octylthio)-6-(4\u2032-hydroxy-3\u2032,5\u2032-di-tert-butylanilino)-1,3,5-triazine", "NSC 328455", "2,6-Di-tert-butyl-4-[4,6-bis(octylthio)-1,3,5-triazin-2-ylamino]phenol", "2,4-Bis-(n-octylthio)-6-(4-hydroxy-3\u2032,5\u2032-di-tert-butylanilino)-1,3,5-triazine", "Tinogard MD 1", "Antioxidant 565", "2,4-Bis(n-octylthio)-6-(4\u2032-hydroxy-3\u2032,5\u2032-di-tert-butylanilino)-1,3,5-triazine", "Eunox AO 565", "BNX 565", "BOTAP", "4-[[4,6-Bis(octylsulfanyl)-1,3,5-triazin-2-yl]amino]-2,6-di-tert-butylphenol", "Irgafos 565", "4-[[4,6-Bis(n-octylthio)-1,3,5-triazin-2-yl]amino]-2,6-di-tert-butylphenol"], "SMILES": "N(C1=CC(C(C)(C)C)=C(O)C(C(C)(C)C)=C1)C=2N=C(SCCCCCCCC)N=C(SCCCCCCCC)N2", "physical_data": {"Molecular Weight": "588.95", "Molecular Formula": "C33H56N4OS2", "Melting Point": "92-95 \u00b0C"}}