{"cas_no": "991-42-4", "cn_name": "\u9f20\u7279\u7075", "en_name": ["Norbormide", "4,7-Methano-1H-isoindole-1,3(2H)-dione, 3a,4,7,7a-tetrahydro-5-(hydroxyphenyl-2-pyridinylmethyl)-8-(phenyl-2-pyridinylmethylene)-", "5-Norbornene-2,3-dicarboximide, 5-(\u03b1-hydroxy-\u03b1-2-pyridylbenzyl)-7-(\u03b1-2-pyridylbenzylidene)-", "3a,4,7,7a-Tetrahydro-5-(hydroxyphenyl-2-pyridinylmethyl)-8-(phenyl-2-pyridinylmethylene)-4,7-methano-1H-isoindole-1,3(2H)-dione", "McN 1025", "S 6999", "Compound S 6999", "5-[(\u03b1-hydroxy-\u03b1-2-pyridyl)benzyl]-7-[\u03b1-(2-pyridyl)benzyl]-5-norbornene-2,3-dicarboximide", "Norbormide", "Raticate", "5-(\u03b1-Hydroxy-\u03b1-2-pyridylbenzyl)-7-(\u03b1-2-pyridylbenzylidene)-5-norbornene-2,3-dicarboximide", "Shoxin", "NSC 101316"], "SMILES": "C(=C1C2C(C(O)(C3=CC=CC=C3)C4=CC=CC=N4)=CC1C5C2C(=O)NC5=O)(C6=CC=CC=C6)C7=CC=CC=N7", "physical_data": {"Molecular Weight": "511.57", "Molecular Formula": "C33H25N3O3", "Melting Point": "190-198 \u00b0C"}}