{"cas_no": "99105-77-8", "cn_name": "\u78fa\u8349\u916e", "en_name": ["Sulcotrione", "1,3-Cyclohexanedione, 2-[2-chloro-4-(methylsulfonyl)benzoyl]-", "2-[2-Chloro-4-(methylsulfonyl)benzoyl]-1,3-cyclohexanedione", "ICI-A 0051", "SC 0051", "Sulcotrione", "Mikado", "Chlormesulone"], "SMILES": "C(=O)(C1=C(Cl)C=C(S(C)(=O)=O)C=C1)C2C(=O)CCCC2=O", "physical_data": {"Molecular Weight": "328.77", "Molecular Formula": "C14H13ClO5S", "Melting Point": "139 \u00b0C"}}