{"cas_no": "99129-21-2", "cn_name": "\u70ef\u8349\u916e", "en_name": ["Clethodim", "2-Cyclohexen-1-one, 2-[1-[[[(2E)-3-chloro-2-propen-1-yl]oxy]imino]propyl]-5-[2-(ethylthio)propyl]-3-hydroxy-", "2-Cyclohexen-1-one, 2-[1-[[[(2E)-3-chloro-2-propenyl]oxy]imino]propyl]-5-[2-(ethylthio)propyl]-3-hydroxy-", "2-[1-[[[(2E)-3-Chloro-2-propen-1-yl]oxy]imino]propyl]-5-[2-(ethylthio)propyl]-3-hydroxy-2-cyclohexen-1-one", "Clethodim", "RE 45601", "Select", "Centurion", "Prism", "Prism (pesticide)", "Select MAX", "Volunteer", "Trigger", "E-Clethodim", "Ogive", "Select Super 120EC", "Centurion Plus", "Legion Kombi", "Section Three", "Clethodime", "Chevron RE 45601", "Arrow", "Clethodim T.G.", "Clethodim MUP"], "SMILES": "C(=NOCC=CCl)(CC)C=1C(=O)CC(CC(SCC)C)CC1O", "physical_data": {"Molecular Weight": "359.91", "Molecular Formula": "C17H26ClNO3S", "Melting Point": "&lt;25 \u00b0C"}}