{"cas_no": "99189-60-3", "cn_name": "1,1-\u73af\u5df1\u57fa\u4e8c\u4e59\u9178\u5355\u9170\u80fa", "en_name": ["1,1-Cyclohexanediacetic acid monoamide", "Cyclohexaneacetic acid, 1-(2-amino-2-oxoethyl)-", "Cyclohexaneacetic acid, 1-(carbamoylmethyl)-", "1-(2-Amino-2-oxoethyl)cyclohexaneacetic acid", "1-[(Aminocarbonyl)methyl]cyclohexaneacetic acid", "1,1-Cyclohexanediacetic acid monoamide", "1-(Carboxymethyl)cyclohexane-1-acetamide", "[1-(2-Amino-2-oxoethyl)cyclohexyl]acetic acid", "(1-Carbamoylmethyl-cyclohexyl)-acetic acid", "2-[1-(Carbamoylmethyl)cyclohexyl]acetic acid", "2-[1-(2-Amino-2-oxoethyl)cyclohexyl]acetic acid"], "SMILES": "C(C(N)=O)C1(CC(O)=O)CCCCC1", "physical_data": {"Molecular Weight": "199.25", "Molecular Formula": "C10H17NO3", "Melting Point": "141-145 \u00b0C"}}