{"cas_no": "99199-60-7", "cn_name": "6-\u6c1f\u8272\u6ee1-2-\u7fa7\u9178", "en_name": ["6-Fluoro-3,4-dihydro-2H-1-benzopyran-2-carboxylic acid", "2H-1-Benzopyran-2-carboxylic acid, 6-fluoro-3,4-dihydro-", "6-Fluoro-3,4-dihydro-2H-1-benzopyran-2-carboxylic acid", "6-Fluorochroman-2-carboxylic acid"], "SMILES": "C(O)(=O)C1OC=2C(=CC(F)=CC2)CC1", "physical_data": {"Molecular Weight": "196.18", "Molecular Formula": "C10H9FO3", "Melting Point": "129.2-130.3 \u00b0C"}}