{"cas_no": "992-98-3", "cn_name": "\u8681\u9178\u4e9a\u94ca", "en_name": ["Formic acid, thallium(1+) salt (1:1)", "Formic acid, thallium(1+) salt (1:1)", "Formic acid, thallium(1+) salt", "Thallium formate", "Thallous formate", "Thallium(1+) formate"], "SMILES": "C(O)=O.[Tl]", "physical_data": {"Molecular Weight": "", "Molecular Formula": "CH2O2.Tl", "Melting Point": "101 \u00b0C", "Density": "4.970 g/cm\u00b3 @ Temp: 104 \u00b0C"}}