{"cas_no": "992-92-7", "cn_name": "\u949b\u9178\u7532\u916f", "en_name": ["Titanium tetramethoxide", "Methanol, titanium(4+) salt (4:1)", "Methanol, titanium(4+) salt", "Methyl titanate(IV)", "Methyl titanate(IV) (Ti(OMe)4)", "Titanium methoxide (Ti(OMe)4)", "Titanium, tetramethoxy-", "Tetramethyl titanate", "Titanium tetramethoxide", "Tetramethoxytitanium", "Titanic acid methyl ester", "Methyl orthotitanate", "Tetramethyl orthotitanate", "Tetrakis(methanolato)titanium", "Orgatix TA 70", "Methyl titanate, (MeO)4Ti", "(T-4)-Tetramethoxytitanium", "Tetramethoxychinium"], "SMILES": "CO.[Ti]", "physical_data": {"Molecular Weight": "", "Molecular Formula": "CH4O.<sup>1</sup>/4Ti", "Melting Point": "205-206 \u00b0C"}}