{"cas_no": "992-04-1", "cn_name": "\u516d\u82ef\u57fa\u82ef", "en_name": ["Hexaphenylbenzene", "1,1\u2032:2\u2032,1\u2032\u2032-Terphenyl, 3\u2032,4\u2032,5\u2032,6\u2032-tetraphenyl-", "Benzene, hexaphenyl-", "m-Terphenyl, 2\u2032,4\u2032,5\u2032,6\u2032-tetraphenyl-", "3\u2032,4\u2032,5\u2032,6\u2032-Tetraphenyl-1,1\u2032:2\u2032,1\u2032\u2032-terphenyl", "Hexaphenylbenzene", "NSC 220313", "1,2,3,4,5,6-Hexaphenylbenzene", "1,2,3,4,5,6-Hexakis-phenylbenzene"], "SMILES": "C1(=C(C(=C(C(=C1C2=CC=CC=C2)C3=CC=CC=C3)C4=CC=CC=C4)C5=CC=CC=C5)C6=CC=CC=C6)C7=CC=CC=C7", "physical_data": {"Molecular Weight": "534.69", "Molecular Formula": "C42H30", "Boiling Point": "418-420 \u00b0C", "Melting Point": "449-450 \u00b0C"}}