{"cas_no": "99208-50-1", "cn_name": "10-(2,5-\u4e8c\u7f9f\u57fa\u82ef\u57fa)-10H-9-\u6c27\u6742-10-\u78f7\u6742\u83f2-10-\u6c27\u5316\u7269", "en_name": ["2-(6-Oxido-6H-dibenz[c,e][1,2]oxaphosphorin-6-yl)-1,4-benzenediol", "1,4-Benzenediol, 2-(6-oxido-6H-dibenz[c,e][1,2]oxaphosphorin-6-yl)-", "1,4-Benzenediol, 2-(6H-dibenz[c,e][1,2]oxaphosphorin-6-yl)-, P-oxide", "6H-Dibenz[c,e][1,2]oxaphosphorin, 1,4-benzenediol deriv.", "2-(6-Oxido-6H-dibenz[c,e][1,2]oxaphosphorin-6-yl)-1,4-benzenediol", "HCA-HQ", "10-(2\u2032,5\u2032-Dihydroxyphenyl)-9,10-dihydro-9-oxa-10-phosphaphenanthrene 10-oxide", "PHQ", "10-(2,5-Dihydroxyphenyl)-9,10-dihydro-9-oxa-10-phosphaphenanthrene 10-oxide", "Sanko HCA-HQ", "DOPO-HQ", "ODOPB", "10-(2,5-Dihydroxyphenyl)-10H-9-oxa-10-phosphaphenanthren-10-oxide", "HCA-HQ-HS", "DOPO-BQ", "10-(2,5-Dihydroxyphenyl)-10H-9-oxa-10-phosphaphenanthrene 10-oxide", "10-(2,5-Dihydroxyphenyl)-9-oxa-10-phosphaphenanthrene 10-oxide", "10-(2,5-Dihydroxylphenyl)-9,10-dihydro-9-oxa-10-phosphaphenanthrene 10-oxide", "10-(2,5-Dihydroxyphenyl)-10-hydro-9-oxa-10-phosphaphenanthrene-10-oxide", "10-(2,5-Dihydroxyphenyl)-9,10-dihydro-9-oxa-10-phenanthrene-10-oxide", "HCA-HQ-HST", "2-(6-Oxobenzo[c][2,1]benzoxaphosphinin-6-yl)benzene-1,4-diol", "9,10-Dihydro-10-(2,5-dihydroxyphenyl)-9-oxa-10-phosphaphenanthrene-10-oxide"], "SMILES": "O=P1(C=2C(C=3C(O1)=CC=CC3)=CC=CC2)C4=C(O)C=CC(O)=C4", "physical_data": {"Molecular Weight": "324.27", "Molecular Formula": "C18H13O4P", "Melting Point": "244-245 \u00b0C"}}