{"cas_no": "99217-63-7", "cn_name": "\u82e6\u53c2\u65b0\u9187 A", "en_name": ["Kushenol A", "4H-1-Benzopyran-4-one, 2,3-dihydro-5,7-dihydroxy-2-(2-hydroxyphenyl)-8-[(2R)-5-methyl-2-(1-methylethenyl)-4-hexen-1-yl]-, (2S)-", "4H-1-Benzopyran-4-one, 2,3-dihydro-5,7-dihydroxy-2-(2-hydroxyphenyl)-8-[5-methyl-2-(1-methylethenyl)-4-hexenyl]-, [S-(R*,S*)]-", "4H-1-Benzopyran-4-one, 2,3-dihydro-5,7-dihydroxy-2-(2-hydroxyphenyl)-8-[(2R)-5-methyl-2-(1-methylethenyl)-4-hexenyl]-, (2S)-", "(2S)-2,3-Dihydro-5,7-dihydroxy-2-(2-hydroxyphenyl)-8-[(2R)-5-methyl-2-(1-methylethenyl)-4-hexen-1-yl]-4H-1-benzopyran-4-one", "(-)-Kushenol A", "Kushenol A", "Leachianone E"], "SMILES": "C(C(CC=C(C)C)C(C)=C)C1=C2C(C(=O)CC(O2)C3=C(O)C=CC=C3)=C(O)C=C1O", "physical_data": {"Molecular Weight": "408.49", "Molecular Formula": "C25H28O5", "Melting Point": "175-178 \u00b0C"}}