{"cas_no": "99281-90-0", "cn_name": "(S)-1-\u6c30\u57fa-2-\u82ef\u57fa\u4e59\u57fa\u6c28\u57fa\u7532\u9178\u53d4\u4e01\u916f", "en_name": ["1,1-Dimethylethyl N-[(1S)-1-cyano-2-phenylethyl]carbamate", "Carbamic acid, N-[(1S)-1-cyano-2-phenylethyl]-, 1,1-dimethylethyl ester", "Carbamic acid, (1-cyano-2-phenylethyl)-, 1,1-dimethylethyl ester, (S)-", "Carbamic acid, [(1S)-1-cyano-2-phenylethyl]-, 1,1-dimethylethyl ester", "1,1-Dimethylethyl N-[(1S)-1-cyano-2-phenylethyl]carbamate"], "SMILES": "C(CC1=CC=CC=C1)(NC(OC(C)(C)C)=O)C#N", "physical_data": {"Molecular Weight": "246.30", "Molecular Formula": "C14H18N2O2", "Melting Point": "114-115 \u00b0C"}}