{"cas_no": "99294-93-6", "cn_name": "\u9152\u77f3\u9178\u5511\u5421\u5766", "en_name": ["Zolpidem tartrate", "Imidazo[1,2-a]pyridine-3-acetamide, N,N,6-trimethyl-2-(4-methylphenyl)-, (2R,3R)-2,3-dihydroxybutanedioate (2:1)", "Imidazo[1,2-a]pyridine-3-acetamide, N,N,6-trimethyl-2-(4-methylphenyl)-, [R-(R*,R*)]-2,3-dihydroxybutanedioate (2:1)", "Zolpidem tartrate", "Ambien", "Zolpidem hemitartrate", "Stilnoct", "Niotal", "Stilnox", "Ivadal", "SL 800750-23N", "Zolfresh", "Zolinox", "sobrium", "Intermezzo"], "SMILES": "C(C(C(O)=O)O)(C(O)=O)O.C(C(N(C)C)=O)C1=C(N=C2N1C=C(C)C=C2)C3=CC=C(C)C=C3", "physical_data": {"Molecular Weight": "", "Molecular Formula": "C19H21N3O.<sup>1</sup>/2C4H6O6", "Melting Point": "196 \u00b0C"}}