{"cas_no": "99291-25-5", "cn_name": "\u53f3\u7f9f\u4e19\u54cc\u55ea", "en_name": ["Levodropropizine", "1,2-Propanediol, 3-(4-phenyl-1-piperazinyl)-, (2S)-", "1,2-Propanediol, 3-(4-phenyl-1-piperazinyl)-, (S)-", "(2S)-3-(4-Phenyl-1-piperazinyl)-1,2-propanediol", "(-)-Dropropizine", "Levodropropizine", "l-Dropropizine", "(S)-(-)-Dropropizine", "LVDP", "Levotuss", "(2S)-3-(4-Phenylpiperazin-1-yl)propane-1,2-diol", "(S)-Dropropizine", "Rapitus"], "SMILES": "C(C(CO)O)N1CCN(CC1)C2=CC=CC=C2", "physical_data": {"Molecular Weight": "236.31", "Molecular Formula": "C13H20N2O2", "Melting Point": "102-104 \u00b0C"}}