{"cas_no": "99290-97-8", "cn_name": "\u7ea2\u9709\u7d20A6,9 - \u4e9a\u6c28\u57fa\u919a", "en_name": ["(1Z,3R,4R,5S,6R,9R,10S,11S,12R,13R,15R)-10-[(2,6-Dideoxy-3-C-methyl-3-O-methyl-\u03b1-L-ribo-hexopyranosyl)oxy]-6-ethyl-4,5-dihydroxy-3,5,9,11,13,15-hexamethyl-12-[[3,4,6-trideoxy-3-(dimethylamino)-\u03b2-D-xylo-hexopyranosyl]oxy]-7,16-dioxa-2-azabicyclo[11.2.1]hexadec-1-en-8-one", "7,16-Dioxa-2-azabicyclo[11.2.1]hexadec-1-en-8-one, 10-[(2,6-dideoxy-3-C-methyl-3-O-methyl-\u03b1-L-ribo-hexopyranosyl)oxy]-6-ethyl-4,5-dihydroxy-3,5,9,11,13,15-hexamethyl-12-[[3,4,6-trideoxy-3-(dimethylamino)-\u03b2-D-xylo-hexopyranosyl]oxy]-, (1Z,3R,4R,5S,6R,9R,10S,11S,12R,13R,15R)-", "7,16-Dioxa-2-azabicyclo[11.2.1]hexadec-1-en-8-one, 10-[(2,6-dideoxy-3-C-methyl-3-O-methyl-\u03b1-L-ribo-hexopyranosyl)oxy]-6-ethyl-4,5-dihydroxy-3,5,9,11,13,15-hexamethyl-12-[[3,4,6-trideoxy-3-(dimethylamino)-\u03b2-D-xylo-hexopyranosyl]oxy]-, [3R-(3R*,4R*,5S*,6R*,9R*,10S*,11S*,12R*,13R*,15R*)]-", "(1Z,3R,4R,5S,6R,9R,10S,11S,12R,13R,15R)-10-[(2,6-Dideoxy-3-C-methyl-3-O-methyl-\u03b1-L-ribo-hexopyranosyl)oxy]-6-ethyl-4,5-dihydroxy-3,5,9,11,13,15-hexamethyl-12-[[3,4,6-trideoxy-3-(dimethylamino)-\u03b2-D-xylo-hexopyranosyl]oxy]-7,16-dioxa-2-azabicyclo[11.2.1]hexadec-1-en-8-one"], "SMILES": "O(C1C2(C)OC(C(C)C2)=NC(C)C(O)C(C)(O)C(CC)OC(=O)C(C)C(OC3CC(OC)(C)C(O)C(C)O3)C1C)C4C(O)C(N(C)C)CC(C)O4", "physical_data": {"Molecular Weight": "730.93", "Molecular Formula": "C37H66N2O12", "Melting Point": "129-130 \u00b0C"}}