{"cas_no": "993-95-3", "cn_name": "1,1,2,3,3,3-\u4e94\u6c1f\u4e19\u57fa-2,2,2-\u4e09\u6c1f\u4e59\u919a", "en_name": ["1,1,1,2,3,3-Hexafluoro-3-(2,2,2-trifluoroethoxy)propane", "Propane, 1,1,1,2,3,3-hexafluoro-3-(2,2,2-trifluoroethoxy)-", "Ether, 1,1,2,3,3,3-hexafluoropropyl 2,2,2-trifluoroethyl", "1,1,1,2,3,3-Hexafluoro-3-(2,2,2-trifluoroethoxy)propane", "1,1,2,3,3,3-Hexafluoropropyl 2,2,2-trifluoroethyl ether", "HFE 449mec-f", "2,2,2-Trisfluoroethyl 1,1,2,3,3,3-hexafluoropropyl ether"], "SMILES": "C(C(C(F)(F)F)F)(OCC(F)(F)F)(F)F", "physical_data": {"Molecular Weight": "250.06", "Molecular Formula": "C5H3F9O", "Boiling Point": "72 \u00b0C @ Press: 750 Torr", "Density": "1.5398 g/cm\u00b3 @ Temp: 20 \u00b0C"}}