{"cas_no": "993-13-5", "cn_name": "\u7532\u57fa\u81a6\u9178", "en_name": ["Methylphosphonic acid", "Phosphonic acid, P-methyl-", "Phosphonic acid, methyl-", "P-Methylphosphonic acid", "Methanephosphonic acid", "Methylphosphonic acid", "Dihydrogen methylphosphonate", "MPA", "NSC 119358"], "SMILES": "P(C)(=O)(O)O", "physical_data": {"Molecular Weight": "96.02", "Molecular Formula": "CH5O3P", "Melting Point": "108.5 \u00b0C"}}