{"cas_no": "993-10-2", "cn_name": "\u4e09\u6c2f\u7532\u57fa\u9517", "en_name": ["Germane, trichloromethyl-", "Germane, trichloromethyl-", "Methylgermanium trichloride", "Trichloromethylgermane", "Trichloromethylgermanium", "Methyltrichlorogermane", "Methylgermyl trichloride"], "SMILES": "[Ge](C)(Cl)(Cl)Cl", "physical_data": {"Molecular Weight": "194.03", "Molecular Formula": "CH3Cl3Ge", "Boiling Point": "110-111 \u00b0C", "Density": "1.706 g/cm\u00b3"}}