{"cas_no": "993-00-0", "cn_name": "\u6c2f\u7532\u57fa\u7845\u70f7", "en_name": ["(Chlorosilyl)methane", "Silane, chloromethyl-", "Methylchlorosilane", "Chloromethylsilane", "(Chlorosilyl)methane"], "SMILES": "[SiH2](C)Cl", "physical_data": {"Molecular Weight": "80.59", "Molecular Formula": "CH5ClSi", "Boiling Point": "7 \u00b0C", "Melting Point": "-135 \u00b0C", "Density": "1.1766 g/cm\u00b3 @ Temp: 20 \u00b0C"}}