{"cas_no": "993-50-0", "cn_name": "(\u4e8c\u7532\u57fa\u6c28\u57fa)\u4e09\u7532\u57fa\u9521", "en_name": ["N,N,1,1,1-Pentamethylstannanamine", "Stannanamine, N,N,1,1,1-pentamethyl-", "Stannane, (dimethylamino)trimethyl-", "Stannanamine, pentamethyl-", "Tin, (dimethylamino)trimethyl-", "N,N,1,1,1-Pentamethylstannanamine", "(Trimethylstannyl)dimethylamine", "(Dimethylamino)trimethylstannane", "Trimethyl(dimethylamino)stannane", "(Dimethylamino)trimethyltin", "N,N-Dimethyl(trimethylstannyl)amine", "Trimethyltin dimethylamide", "Dimethyl(trimethylstannyl)amine", "(Dimethylamino)trimethyltin(IV)"], "SMILES": "[Sn](N(C)C)(C)(C)C", "physical_data": {"Molecular Weight": "207.89", "Molecular Formula": "C5H15NSn", "Boiling Point": "126 \u00b0C", "Density": "1.274 g/cm\u00b3"}}