{"cas_no": "993-16-8", "cn_name": "\u4e09\u6c2f\u7532\u57fa\u9521", "en_name": ["Methyltin trichloride", "Stannane, trichloromethyl-", "Methyltin trichloride", "Trichloromethylstannane", "Trichloromethyltin", "Methyltrichlorostannane", "Methyltrichlorotin", "Monomethyltin trichloride"], "SMILES": "[Sn](C)(Cl)(Cl)Cl", "physical_data": {"Molecular Weight": "240.10", "Molecular Formula": "CH3Cl3Sn", "Boiling Point": "171 \u00b0C", "Melting Point": "45.5 \u00b0C"}}