{"cas_no": "993-12-4", "cn_name": "\u4e8c\u7532\u57fa\u786b\u4ee3\u78f7\u9170\u6c2f", "en_name": ["Dimethylphosphinothioyl chloride", "Phosphinothioic chloride, dimethyl-", "Dimethylthiophosphinic chloride", "Dimethylphosphinothioic chloride", "Dimethylthiophosphinic acid chloride", "Chlorodimethylphosphine sulfide", "Dimethylphosphinothioyl chloride", "Dimethylthiophosphinyl chloride", "Dimethylthiophosphinoyl chloride"], "SMILES": "P(C)(C)(Cl)=S", "physical_data": {"Molecular Weight": "128.56", "Molecular Formula": "C2H6ClPS", "Boiling Point": "73.5 \u00b0C @ Press: 12 Torr", "Melting Point": "22.5 \u00b0C", "Density": "1.2282 g/cm\u00b3 @ Temp: 20 \u00b0C"}}