{"cas_no": "993-22-6", "cn_name": "\u53e0\u6c2e\u5316\u56db\u4e01\u57fa\u94f5", "en_name": ["1-Butanaminium, N,N,N-tributyl-, azide (1:1)", "1-Butanaminium, N,N,N-tributyl-, azide (1:1)", "Ammonium, tetrabutyl-, azide", "Tetrabutylammonium azide", "1-Butanaminium, N,N,N-tributyl-, azide", "Tetra-n-butylammonium azide", "Tetrabutylammonium nitride"], "SMILES": "[N+](CCCC)(CCCC)(CCCC)CCCC.[N+](=[N-])=[N-]", "physical_data": {"Molecular Weight": "", "Molecular Formula": "C16H36N.N3", "Melting Point": "80 \u00b0C (decomp)"}}