{"cas_no": "993-07-7", "cn_name": "\u4e09\u7532\u57fa\u7845\u70f7", "en_name": ["Trimethylsilane", "Silane, trimethyl-", "Trimethylsilane", "2-Methyl-2-silapropane", "Trimethylsilyl hydride", "Dow Corning 9-5170"], "SMILES": "[SiH](C)(C)C", "physical_data": {"Molecular Weight": "74.20", "Molecular Formula": "C3H10Si", "Boiling Point": "6.7 \u00b0C", "Melting Point": "-135.9 \u00b0C", "Density": "0.638 g/cm\u00b3 @ Temp: 6.7 \u00b0C"}}