{"cas_no": "99300-78-4", "cn_name": "\u76d0\u9178\u6587\u62c9\u6cd5\u8f9b", "en_name": ["Venlafaxine hydrochloride", "Cyclohexanol, 1-[2-(dimethylamino)-1-(4-methoxyphenyl)ethyl]-, hydrochloride (1:1)", "Cyclohexanol, 1-[2-(dimethylamino)-1-(4-methoxyphenyl)ethyl]-, hydrochloride", "Wy 45030", "Venlafaxine hydrochloride", "Effexor", "Efexor", "Wy 4530", "Venlafaxin hydrochloride", "Ventab XL", "Vexor", "Venlift", "VENIZ-XR", "VENTAB", "1-(2-(Dimethylamino)-1-(4-methoxyphenyl)ethyl)cyclohexanol hydrochloride", "Effexor XR"], "SMILES": "C(CN(C)C)(C1(O)CCCCC1)C2=CC=C(OC)C=C2.Cl", "physical_data": {"Molecular Weight": "", "Molecular Formula": "C17H27NO2.ClH", "Melting Point": "215-217 \u00b0C"}}