{"cas_no": "99387-89-0", "cn_name": "\u6c1f\u83cc\u5511", "en_name": ["Triflumizole", "Benzenamine, 4-chloro-N-[1-(1H-imidazol-1-yl)-2-propoxyethylidene]-2-(trifluoromethyl)-, [N(E)]-", "1H-Imidazole, 1-[1-[[4-chloro-2-(trifluoromethyl)phenyl]imino]-2-propoxyethyl]-, (E)-", "1H-Imidazole, 1-[(1E)-1-[[4-chloro-2-(trifluoromethyl)phenyl]imino]-2-propoxyethyl]-", "[N(E)]-4-Chloro-N-[1-(1H-imidazol-1-yl)-2-propoxyethylidene]-2-(trifluoromethyl)benzenamine", "Triflumizol", "Triflumizole", "Trifmine", "NF 114", "SSP 11", "Procure", "Condor", "Trifumine", "Trifumin", "Terraguard", "Procure (fungicide)"], "SMILES": "C(F)(F)(F)C1=C(N=C(COCCC)N2C=CN=C2)C=CC(Cl)=C1", "physical_data": {"Molecular Weight": "345.75", "Molecular Formula": "C15H15ClF3N3O", "Melting Point": "63 \u00b0C", "Density": "1.4 g/cm\u00b3"}}