{"cas_no": "99395-88-7", "cn_name": "(S)-4-\u82ef\u57fa-2-\u5511\u70f7\u916e", "en_name": ["(S)-(+)-4-Phenyl-2-oxazolidinone", "2-Oxazolidinone, 4-phenyl-, (4S)-", "2-Oxazolidinone, 4-phenyl-, (S)-", "(4S)-4-Phenyl-2-oxazolidinone", "(S)-4-Phenyl-2-oxazolidinone", "(S)-(+)-4-Phenyl-2-oxazolidinone", "(+)-4-Phenyl-2-oxazolidinone", "(S)-POZ", "(S)-4-Phenyl-1,3-oxazolidin-2-one", "(4S)-4-Phenyloxazolidin-2-one", "(S)-POZ", "(4S)-4-Phenyl-1,3-oxazolidin-2-one"], "SMILES": "O=C1NC(CO1)C2=CC=CC=C2", "physical_data": {"Molecular Weight": "163.17", "Molecular Formula": "C9H9NO2", "Melting Point": "124-126 \u00b0C"}}