{"cas_no": "994-31-0", "cn_name": "\u6c2f\u5316\u4e09\u4e59\u57fa\u9521", "en_name": ["Triethyltin chloride", "Stannane, chlorotriethyl-", "Triethyltin chloride", "Chlorotriethylstannane", "Chlorotriethyltin", "Triethylstannyl chloride", "Triethylchlorostannane", "Triethylchlorotin", "NSC 5283"], "SMILES": "[Sn](CC)(CC)(CC)Cl", "physical_data": {"Molecular Weight": "241.35", "Molecular Formula": "C6H15ClSn", "Boiling Point": "100-101 \u00b0C @ Press: 16 Torr", "Melting Point": "50.15 \u00b0C", "Density": "1.429 g/cm\u00b3 @ Temp: 20 \u00b0C"}}