{"cas_no": "994-28-5", "cn_name": "\u4e09\u4e59\u57fa\u6c2f\u5316\u9517", "en_name": ["Chlorotriethylgermane", "Germane, chlorotriethyl-", "Triethylgermanium chloride", "Chlorotriethylgermane", "Triethylgermyl chloride", "Triethylchlorogermane", "NSC 158926"], "SMILES": "[Ge](CC)(CC)(CC)Cl", "physical_data": {"Molecular Weight": "195.28", "Molecular Formula": "C6H15ClGe", "Boiling Point": "176 \u00b0C", "Density": "1.175 g/cm\u00b3"}}