{"cas_no": "994-79-6", "cn_name": "\u56db\u4e01[\u55ae]\u77fd\u70f7", "en_name": ["Tetrabutylsilane", "Silane, tetrabutyl-", "Tetrabutylsilane"], "SMILES": "[Si](CCCC)(CCCC)(CCCC)CCCC", "physical_data": {"Molecular Weight": "256.54", "Molecular Formula": "C16H36Si", "Boiling Point": "231 \u00b0C", "Density": "0.822 g/cm\u00b3 @ Temp: 22 \u00b0C"}}