{"cas_no": "994-30-9", "cn_name": "\u4e09\u4e59\u57fa\u6c2f\u7845\u70f7", "en_name": ["Triethylsilyl chloride", "Silane, chlorotriethyl-", "Chlorotriethylsilane", "Triethylchlorosilane", "Triethylsilyl chloride", "TESCl"], "SMILES": "[Si](CC)(CC)(CC)Cl", "physical_data": {"Molecular Weight": "150.72", "Molecular Formula": "C6H15ClSi", "Boiling Point": "144.5 \u00b0C", "Melting Point": "-50 \u00b0C", "Density": "0.896 g/cm\u00b3"}}