{"cas_no": "994-49-0", "cn_name": "\u516d\u4e59\u57fa\u4e8c\u7845\u6c27\u70f7", "en_name": ["Hexaethyldisiloxane", "Disiloxane, 1,1,1,3,3,3-hexaethyl-", "Disiloxane, hexaethyl-", "1,1,1,3,3,3-Hexaethyldisiloxane", "Hexaethyldisiloxane", "Bis(triethylsilyl) ether", "NSC 139841"], "SMILES": "[Si](O[Si](CC)(CC)CC)(CC)(CC)CC", "physical_data": {"Molecular Weight": "246.54", "Molecular Formula": "C12H30OSi2", "Boiling Point": "233 \u00b0C", "Melting Point": "-115 \u00b0C", "Density": "0.844 g/cm\u00b3"}}