{"cas_no": "994-05-8", "cn_name": "\u53d4\u620a\u57fa\u7532\u57fa\u919a", "en_name": ["tert-Amyl methyl ether", "Butane, 2-methoxy-2-methyl-", "Ether, methyl tert-pentyl", "2-Methoxy-2-methylbutane", "Methyl tert-pentyl ether", "2-Methyl-2-methoxybutane", "tert-Amyl methyl ether", "1,1-Dimethylpropyl methyl ether", "Methyl 1,1-dimethylpropyl ether", "tert-Pentyl methyl ether", "TAME (ether)", "TAME", "Methyl tert-amyl ether", "t-Amyl methyl ether"], "SMILES": "C(CC)(OC)(C)C", "physical_data": {"Molecular Weight": "102.17", "Molecular Formula": "C6H14O", "Boiling Point": "86.3 \u00b0C", "Density": "0.7703 g/cm\u00b3 @ Temp: 20 \u00b0C"}}