{"cas_no": "99455-08-0", "cn_name": "7-\u6eb4-2-\u7532\u6c27\u57fa\u55b9\u5549", "en_name": ["7-Bromo-2-methoxyquinoline", "Quinoline, 7-bromo-2-methoxy-", "7-Bromo-2-methoxyquinoline"], "SMILES": "O(C)C1=NC2=C(C=C1)C=CC(Br)=C2", "physical_data": {"Molecular Weight": "238.08", "Molecular Formula": "C10H8BrNO", "Melting Point": "68 \u00b0C"}}