{"cas_no": "99465-10-8", "cn_name": "7-\u6eb4-2(1H)-\u55b9\u5549\u916e", "en_name": ["7-Bromoquinolin-2(1H)-one", "2(1H)-Quinolinone, 7-bromo-", "7-Bromo-2(1H)-quinolinone", "7-Bromoquinolin-2(1H)-one", "7-Bromo-2-hydroxyquinoline", "7-Bromoquinoline-2(1H)-one", "7-Bromo-2-quinolinone", "7-Bromo-1,2-dihydroquinolin-2-one"], "SMILES": "BrC=1C=C2C(C=CC(=O)N2)=CC1", "physical_data": {"Molecular Weight": "224.05", "Molecular Formula": "C9H6BrNO", "Melting Point": "270-272 \u00b0C"}}