{"cas_no": "99464-64-9", "cn_name": "\u5b89\u5421\u6614\u5eb7", "en_name": ["Ampiroxicam", "Carbonic acid, ethyl 1-[[2-methyl-1,1-dioxido-3-[(2-pyridinylamino)carbonyl]-2H-1,2-benzothiazin-4-yl]oxy]ethyl ester", "Carbonic acid, ethyl 1-[[2-methyl-3-[(2-pyridinylamino)carbonyl]-2H-1,2-benzothiazin-4-yl]oxy]ethyl ester, S,S-dioxide", "2H-1,2-Benzothiazine, carbonic acid deriv.", "Ampiroxicam", "CP 65703", "Nasil", "Flucam"], "SMILES": "O(C(OC(OCC)=O)C)C=1C=2C(S(=O)(=O)N(C)C1C(NC3=CC=CC=N3)=O)=CC=CC2", "physical_data": {"Molecular Weight": "447.46", "Molecular Formula": "C20H21N3O7S", "Melting Point": "159-161 \u00b0C"}}