{"cas_no": "99485-76-4", "cn_name": "\u82c4\u8349\u9686", "en_name": ["Cumyluron", "Urea, N-[(2-chlorophenyl)methyl]-N\u2032-(1-methyl-1-phenylethyl)-", "N-[(2-Chlorophenyl)methyl]-N\u2032-(1-methyl-1-phenylethyl)urea", "1-(2-Chlorobenzyl)-3-(\u03b1,\u03b1-dimethylbenzyl)urea", "JC 940", "IC 940", "Cumyluron", "Dibenzyluron", "Cumyleron"], "SMILES": "C(NC(NCC1=C(Cl)C=CC=C1)=O)(C)(C)C2=CC=CC=C2", "physical_data": {"Molecular Weight": "302.80", "Molecular Formula": "C17H19ClN2O", "Melting Point": "150-153 \u00b0C"}}