{"cas_no": "995-32-4", "cn_name": "\u4e9a\u4e59\u57fa\u4e8c\u78f7\u9178\u56db\u4e59\u916f", "en_name": ["Tetraethyl ethylenediphosphonate", "Phosphonic acid, P,P\u2032-1,2-ethanediylbis-, P,P,P\u2032,P\u2032-tetraethyl ester", "Phosphonic acid, ethylenedi-, tetraethyl ester", "Phosphonic acid, 1,2-ethanediylbis-, tetraethyl ester", "Tetraethyl ethylenebis(phosphonate)", "Tetraethyl ethylenediphosphonate", "Ethane-1,2-diphosphonic acid tetraethyl ester", "1,2-Bis(diethoxyphosphinyl)ethane", "1,2-Ethylenediphosphonic acid tetraethyl ester", "1,2-Bis(diethylphosphonyl)ethane", "1,2-Bis(diethoxyphosphoryl)ethane"], "SMILES": "P(CCP(OCC)(OCC)=O)(OCC)(OCC)=O", "physical_data": {"Molecular Weight": "302.24", "Molecular Formula": "C10H24O6P2", "Boiling Point": "167 \u00b0C @ Press: 1 Torr", "Density": "1.1376 g/cm\u00b3 @ Temp: 20 \u00b0C"}}