{"cas_no": "995-83-5", "cn_name": "\u5341\u7532\u57fa\u4e8c\u6c22\u4e94\u7845\u6c27\u70f7", "en_name": ["1,1,3,3,5,5,7,7,9,9-Decamethylpentasiloxane", "Pentasiloxane, 1,1,3,3,5,5,7,7,9,9-decamethyl-", "1,1,3,3,5,5,7,7,9,9-Decamethylpentasiloxane", "1,9-Dihydrodecamethylpentasiloxane", "1,9-Dihydrogendecamethylpentasiloxane", "1,9-Dihydridodecamethylpentasiloxane"], "SMILES": "[Si](O[Si](O[SiH](C)C)(C)C)(O[Si](O[SiH](C)C)(C)C)(C)C", "physical_data": {"Molecular Weight": "356.79", "Molecular Formula": "C10H32O4Si5", "Boiling Point": "124 \u00b0C @ Press: 50 Torr", "Density": "0.8818 g/cm\u00b3 @ Temp: 20 \u00b0C"}}