{"cas_no": "995-45-9", "cn_name": "\u4e09\u4e01\u57fa\u6c2f\u7845\u70f7", "en_name": ["Tributylchlorosilane", "Silane, tributylchloro-", "Tributylchlorosilane", "Chlorotributylsilane", "Tributylsilyl chloride", "Tri-n-butylchlorosilane", "NSC 139852"], "SMILES": "[Si](CCCC)(CCCC)(CCCC)Cl", "physical_data": {"Molecular Weight": "234.88", "Molecular Formula": "C12H27ClSi", "Boiling Point": "93-94 \u00b0C @ Press: 4 Torr", "Density": "0.879 g/cm\u00b3"}}