{"cas_no": "995-25-5", "cn_name": "\u4e09\u4e19\u57fa\u6c2f\u7845\u70f7", "en_name": ["Chlorotripropylsilane", "Silane, chlorotripropyl-", "Chlorotripropylsilane", "Tripropylsilyl chloride", "Tri-n-propylchlorosilane", "Tripropylchlorosilane", "NSC 139864"], "SMILES": "[Si](CCC)(CCC)(CCC)Cl", "physical_data": {"Molecular Weight": "192.80", "Molecular Formula": "C9H21ClSi", "Boiling Point": "199-201 \u00b0C", "Density": "0.882 g/cm\u00b3"}}