{"cas_no": "99519-84-3", "cn_name": "5-\u6c28\u57fa-1-(3,5-\u4e8c\u6c2f-4-(4-\u6c2f\u82ef\u7532\u9170\u57fa)\u82c4\u57fa)-1H-1,2,3-\u4e09\u6c2e\u5511-4-\u7532\u9170\u80fa", "en_name": ["Carboxyamidotriazole", "1H-1,2,3-Triazole-4-carboxamide, 5-amino-1-[[3,5-dichloro-4-(4-chlorobenzoyl)phenyl]methyl]-", "5-Amino-1-[[3,5-dichloro-4-(4-chlorobenzoyl)phenyl]methyl]-1H-1,2,3-triazole-4-carboxamide", "L 651582", "NSC 609974", "CAI", "Carboxyamidotriazole"], "SMILES": "C(=O)(C1=C(Cl)C=C(CN2C(N)=C(C(N)=O)N=N2)C=C1Cl)C3=CC=C(Cl)C=C3", "physical_data": {"Molecular Weight": "424.67", "Molecular Formula": "C17H12Cl3N5O2", "Melting Point": "200-202 \u00b0C"}}