{"cas_no": "99512-10-4", "cn_name": "3-\u6c28\u57fa-4-\u785d\u57fa\u82ef\u8148", "en_name": ["3-Amino-4-nitrobenzonitrile", "Benzonitrile, 3-amino-4-nitro-", "3-Amino-4-nitrobenzonitrile"], "SMILES": "N(=O)(=O)C1=C(N)C=C(C#N)C=C1", "physical_data": {"Molecular Weight": "163.13", "Molecular Formula": "C7H5N3O2", "Melting Point": "128-131 \u00b0C"}}