{"cas_no": "99522-79-9", "cn_name": "\u666e\u62c9\u5730\u5e73", "en_name": ["Pranidipine", "3,5-Pyridinedicarboxylic acid, 1,4-dihydro-2,6-dimethyl-4-(3-nitrophenyl)-, 3-methyl 5-[(2E)-3-phenyl-2-propen-1-yl] ester", "3,5-Pyridinedicarboxylic acid, 1,4-dihydro-2,6-dimethyl-4-(3-nitrophenyl)-, methyl 3-phenyl-2-propenyl ester, (E)-", "3,5-Pyridinedicarboxylic acid, 1,4-dihydro-2,6-dimethyl-4-(3-nitrophenyl)-, methyl (2E)-3-phenyl-2-propenyl ester", "FRC 8411", "OPC 13340", "Pranidipine", "Acalas"], "SMILES": "C(OCC=CC1=CC=CC=C1)(=O)C=2C(C(C(OC)=O)=C(C)NC2C)C3=CC(N(=O)=O)=CC=C3", "physical_data": {"Molecular Weight": "448.47", "Molecular Formula": "C25H24N2O6", "Melting Point": "143.5-144.5 \u00b0C"}}