{"cas_no": "99533-80-9", "cn_name": "K-252A", "en_name": ["(+)-K 252a", "9,12-Epoxy-1H-diindolo[1,2,3-fg:3\u2032,2\u2032,1\u2032-kl]pyrrolo[3,4-i][1,6]benzodiazocine-10-carboxylic acid, 2,3,9,10,11,12-hexahydro-10-hydroxy-9-methyl-1-oxo-, methyl ester, (9S,10R,12R)-", "9,12-Epoxy-1H-diindolo[1,2,3-fg:3\u2032,2\u2032,1\u2032-kl]pyrrolo[3,4-i][1,6]benzodiazocine-10-carboxylic acid, 2,3,9,10,11,12-hexahydro-10-hydroxy-9-methyl-1-oxo-, methyl ester, [9S-(9\u03b1,10\u03b2,12\u03b1)]-", "Antibiotic SF 2370", "Antibiotic K 252a, (+)-", "K 252a", "SF 2370", "(+)-Antibiotic K 252a", "(+)-K 252a", "(+)-Antibiotic SF 2370", "(+)-SF 2370", "Antibiotic K 252a", "Antibiotic SF 2370, (+)-", "Protein kinase inhibitor K252a", "K 252", "K 252a Nocardiopsis sp."], "SMILES": "CC12N3C=4C5=C(C6=C(C4C=7C3=CC=CC7)CNC6=O)C=8C(N5C(O1)CC2(C(OC)=O)O)=CC=CC8", "physical_data": {"Molecular Weight": "467.47", "Molecular Formula": "C27H21N3O5", "Melting Point": "262-273 \u00b0C (decomp)"}}