{"cas_no": "99586-66-0", "cn_name": "2-\u6c28\u57fa-4-\u6c2f-6-\u7532\u57fa\u5627\u5576-5-\u8148", "en_name": ["2-Amino-4-chloro-6-methyl-5-pyrimidinecarbonitrile", "5-Pyrimidinecarbonitrile, 2-amino-4-chloro-6-methyl-", "2-Amino-4-chloro-6-methyl-5-pyrimidinecarbonitrile", "2-Amino-4-chloro-6-methylpyrimidine-5-carbonitrile"], "SMILES": "C(#N)C=1C(C)=NC(N)=NC1Cl", "physical_data": {"Molecular Weight": "168.58", "Molecular Formula": "C6H5ClN4", "Melting Point": "258-259 \u00b0C (decomp)"}}