{"cas_no": "99586-31-9", "cn_name": "2-(3-\u6eb4\u82ef\u57fa)\u82ef\u5e76\u6076\u5511", "en_name": ["2-(3-Bromophenyl)benzoxazole", "Benzoxazole, 2-(3-bromophenyl)-", "Benzoxazole, 2-(m-bromophenyl)-", "2-(3-Bromophenyl)benzoxazole", "2-(3-Bromophenyl)benzo[d]oxazole", "2-(3-Bromophenyl)-1,3-benzoxazole", "2-(3-Bromo-phenyl)-benzooxazole"], "SMILES": "BrC=1C=C(C2=NC=3C(O2)=CC=CC3)C=CC1", "physical_data": {"Molecular Weight": "274.11", "Molecular Formula": "C13H8BrNO", "Melting Point": "136-138 \u00b0C"}}