{"cas_no": "99592-32-2", "cn_name": "\u785d\u9178\u820d\u4ed6\u5eb7\u5511", "en_name": ["Sertaconazole", "1H-Imidazole, 1-[2-[(7-chlorobenzo[b]thien-3-yl)methoxy]-2-(2,4-dichlorophenyl)ethyl]-", "1-[2-[(7-Chlorobenzo[b]thien-3-yl)methoxy]-2-(2,4-dichlorophenyl)ethyl]-1H-imidazole", "Sertaconazole", "FI 7045"], "SMILES": "C(OC(CN1C=CN=C1)C2=C(Cl)C=C(Cl)C=C2)C=3C=4C(SC3)=C(Cl)C=CC4", "physical_data": {"Molecular Weight": "437.77", "Molecular Formula": "C20H15Cl3N2OS", "Melting Point": "146-147 \u00b0C"}}