{"cas_no": "99592-39-9", "cn_name": "\u785d\u9178\u820d\u4ed6\u5eb7\u5511", "en_name": ["Sertaconazole nitrate", "1H-Imidazole, 1-[2-[(7-chlorobenzo[b]thien-3-yl)methoxy]-2-(2,4-dichlorophenyl)ethyl]-, nitrate (1:1)", "1H-Imidazole, 1-[2-[(7-chlorobenzo[b]thien-3-yl)methoxy]-2-(2,4-dichlorophenyl)ethyl]-, mononitrate", "Sertaconazole nitrate", "FI 7056", "Zalain", "Dermofix", "Ertaczo", "Sertaconazole mononitrate", "Dermovit", "1-[2-[(7-Chloro-1-benzothiophen-3-yl)methoxy]-2-(2,4-dichlorophenyl)ethyl]imidazole nitrate"], "SMILES": "N(=O)(=O)O.C(OC(CN1C=CN=C1)C2=C(Cl)C=C(Cl)C=C2)C=3C=4C(SC3)=C(Cl)C=CC4", "physical_data": {"Molecular Weight": "", "Molecular Formula": "C20H15Cl3N2OS.HNO3", "Melting Point": "158-160 \u00b0C"}}