{"cas_no": "996-30-5", "cn_name": "\u5f02\u4e01\u9178\u94a0\u76d0", "en_name": ["Sodium isobutyrate", "Propanoic acid, 2-methyl-, sodium salt (1:1)", "Isobutyric acid, sodium salt", "Propanoic acid, 2-methyl-, sodium salt", "Sodium isobutyrate", "Sodium 2-methylpropanoate", "Sodium isobutanoate", "Sodium 2-methylpropionate"], "SMILES": "C(C(O)=O)(C)C.[Na]", "physical_data": {"Molecular Weight": "", "Molecular Formula": "C4H8O2.Na", "Melting Point": "250 \u00b0C"}}