{"cas_no": "996-98-5", "cn_name": "\u4e59\u4e8c\u9178\u4e8c\u9170\u80bc", "en_name": ["Oxalic acid, dihydrazide", "Ethanedioic acid, 1,2-dihydrazide", "Oxalic acid, dihydrazide", "Ethanedioic acid, dihydrazide", "Oxaldihydrazide", "Oxalyl hydrazide", "Oxalhydrazide", "Oxalyl dihydrazide", "Oxalic dihydrazide", "Oxaloylhydrazine", "Oxalic acid hydrazide", "Oxalic acid bishydrazide", "Oxaloyl dihydrazide", "NSC 264", "Oxaloyldihydrazine"], "SMILES": "C(C(NN)=O)(NN)=O", "physical_data": {"Molecular Weight": "118.09", "Molecular Formula": "C2H6N4O2", "Melting Point": "243 \u00b0C (decomp)", "Density": "1.458 g/cm\u00b3 @ Temp: -5 \u00b0C"}}