{"cas_no": "996-70-3", "cn_name": "\u56db\u4e09(\u4e8c\u7532\u80fa\u57fa)\u4e59\u70ef", "en_name": ["1,1,2,2-Ethenetetramine, N1,N1,N1\u2032,N1\u2032,N2,N2,N2\u2032,N2\u2032-octamethyl-", "1,1,2,2-Ethenetetramine, N1,N1,N1\u2032,N1\u2032,N2,N2,N2\u2032,N2\u2032-octamethyl-", "Ethenetetramine, octamethyl-", "Tetrakis(dimethylamino)ethylene", "TMAE", "Tetrakis(dimethylamine)ethylene", "Tetrakis(dimethylamino)ethene", "1,1,2,2-Tetrakis(dimethylamino)ethene", "1-N,1-N,1-N\u2032,1-N\u2032,2-N,2-N,2-N\u2032,2-N\u2032-Octamethylethene-1,1,2,2-tetramine"], "SMILES": "C(=C(N(C)C)N(C)C)(N(C)C)N(C)C", "physical_data": {"Molecular Weight": "200.32", "Molecular Formula": "C10H24N4", "Boiling Point": "59 \u00b0C @ Press: 0.9 Torr", "Melting Point": "&gt;200 \u00b0C (decomp)", "Density": "0.8612 g/cm\u00b3 @ Temp: 25 \u00b0C"}}