{"cas_no": "996-97-4", "cn_name": "\u4e8c\u4e59\u57fa\u8f9b\u9170\u80fa", "en_name": ["N,N-Diethyloctanamide", "Octanamide, N,N-diethyl-", "N,N-Diethyloctanamide", "N,N-Diethyloctamide", "Caprylic acid diethylamide", "Repellent 790", "NSC 3916"], "SMILES": "N(C(CCCCCCC)=O)(CC)CC", "physical_data": {"Molecular Weight": "199.33", "Molecular Formula": "C12H25NO", "Boiling Point": "148 \u00b0C @ Press: 15 Torr", "Density": "0.8722 g/cm\u00b3 @ Temp: 20 \u00b0C"}}