{"cas_no": "996-35-0", "cn_name": "\u4e8c\u7532\u57fa\u5f02\u4e19\u80fa", "en_name": ["Dimethylisopropylamine", "2-Propanamine, N,N-dimethyl-", "Ethylamine, N,N,1-trimethyl-", "N,N-Dimethyl-2-propanamine", "Dimethylisopropylamine", "N,N-Dimethylisopropylamine", "Isopropyldimethylamine", "2-Dimethylaminopropane", "Catalyst 704"], "SMILES": "C(N(C)C)(C)C", "physical_data": {"Molecular Weight": "87.16", "Molecular Formula": "C5H13N", "Boiling Point": "66 \u00b0C"}}