{"cas_no": "996-50-9", "cn_name": "\u4e09\u7532\u57fa\u7845\u70f7\u57fa\u4e8c\u4e59\u80fa", "en_name": ["(Diethylamino)trimethylsilane", "Silanamine, N,N-diethyl-1,1,1-trimethyl-", "Silylamine, N,N-diethyl-1,1,1-trimethyl-", "N,N-Diethyl-1,1,1-trimethylsilanamine", "(Trimethylsilyl)diethylamine", "Ethanamine, N-ethyl-N-(trimethylsilyl)-", "Diethyl(trimethylsilyl)amine", "N-(Trimethylsilyl)diethylamine", "(Diethylamino)trimethylsilane", "N,N-Diethyltrimethylsilanamine", "N,N-Diethyltrimethylsilylamine", "Trimethyl(diethylamino)silane", "N,N-Diethyl-1,1,1-trimethylsilylamine", "(N,N-Diethylamino)trimethylsilane", "NSC 377650", "T 0492"], "SMILES": "N([Si](C)(C)C)(CC)CC", "physical_data": {"Molecular Weight": "145.32", "Molecular Formula": "C7H19NSi", "Boiling Point": "126.1-126.4 \u00b0C @ Press: 750 Torr"}}