{"cas_no": "99607-70-2", "cn_name": "\u89e3\u6bd2\u55b9", "en_name": ["Cloquintocet-mexyl", "Acetic acid, 2-[(5-chloro-8-quinolinyl)oxy]-, 1-methylhexyl ester", "Acetic acid, [(5-chloro-8-quinolinyl)oxy]-, 1-methylhexyl ester", "CGA 185072", "Cloquintocet-mexyl", "Cloquintocet 1-methylhexyl ester", "1-Methylhexyl 2-[(5-chloroquinolin-8-yl)oxy]acetate"], "SMILES": "O(CC(OC(CCCCC)C)=O)C=1C2=C(C(Cl)=CC1)C=CC=N2", "physical_data": {"Molecular Weight": "335.83", "Molecular Formula": "C18H22ClNO3", "Melting Point": "69.4 \u00b0C"}}