{"cas_no": "99614-01-4", "cn_name": "\u76d0\u9178\u6602\u4e39\u53f8\u743c", "en_name": ["Ondansetron hydrochloride", "4H-Carbazol-4-one, 1,2,3,9-tetrahydro-9-methyl-3-[(2-methyl-1H-imidazol-1-yl)methyl]-, hydrochloride (1:1)", "4H-Carbazol-4-one, 1,2,3,9-tetrahydro-9-methyl-3-[(2-methyl-1H-imidazol-1-yl)methyl]-, monohydrochloride", "GR 38032F", "Ondansetron hydrochloride", "SN 307", "NSC 665799", "1,2,3,4-Tetrahydro-9-methyl-3-[(2-methyl-1H-imidazol-1-yl)methyl]-9H-carbazol-4-one hydrochloride", "Osetron", "Emeset"], "SMILES": "O=C1C=2C=3C(N(C)C2CCC1CN4C(C)=NC=C4)=CC=CC3.Cl", "physical_data": {"Molecular Weight": "", "Molecular Formula": "C18H19N3O.ClH", "Melting Point": "178.5-179.5 \u00b0C"}}