{"cas_no": "99614-02-5", "cn_name": "\u6602\u4e39\u53f8\u743c", "en_name": ["Ondansetron", "4H-Carbazol-4-one, 1,2,3,9-tetrahydro-9-methyl-3-[(2-methyl-1H-imidazol-1-yl)methyl]-", "1,2,3,9-Tetrahydro-9-methyl-3-[(2-methyl-1H-imidazol-1-yl)methyl]-4H-carbazol-4-one", "Ondansetron", "GR 38032", "GR 38032X", "Zofran", "Zudan", "Zophren", "1,2,3,4-Tetrahydro-9-methyl-3-[(2-methyl-1H-imidazol-1-yl)methyl]-9H-carbazol-4-one", "Ondanles", "Setron", "Yatrox", "Bekinda", "RHB 102", "1,2,3,4-Tetrahydro-9-methyl-3-(2-methyl-1H-imidazol-1-ylmethyl)carbazol-4-one", "MeSH ID: D017294"], "SMILES": "O=C1C=2C=3C(N(C)C2CCC1CN4C(C)=NC=C4)=CC=CC3", "physical_data": {"Molecular Weight": "293.36", "Molecular Formula": "C18H19N3O", "Melting Point": "231-232 \u00b0C"}}