{"cas_no": "99624-28-9", "cn_name": "\u5c0f\u6784\u6811\u9187A", "en_name": ["4-[(2S)-3,4-Dihydro-7-hydroxy-2H-1-benzopyran-2-yl]-3,6-bis(3-methyl-2-buten-1-yl)-1,2-benzenediol", "1,2-Benzenediol, 4-[(2S)-3,4-dihydro-7-hydroxy-2H-1-benzopyran-2-yl]-3,6-bis(3-methyl-2-buten-1-yl)-", "1,2-Benzenediol, 4-(3,4-dihydro-7-hydroxy-2H-1-benzopyran-2-yl)-3,6-bis(3-methyl-2-butenyl)-, (S)-", "1,2-Benzenediol, 4-[(2S)-3,4-dihydro-7-hydroxy-2H-1-benzopyran-2-yl]-3,6-bis(3-methyl-2-butenyl)-", "4-[(2S)-3,4-Dihydro-7-hydroxy-2H-1-benzopyran-2-yl]-3,6-bis(3-methyl-2-buten-1-yl)-1,2-benzenediol", "(-)-Kazinol A", "Kazinol A"], "SMILES": "C(C=C(C)C)C1=C(C=C(CC=C(C)C)C(O)=C1O)C2OC=3C(CC2)=CC=C(O)C3", "physical_data": {"Molecular Weight": "394.50", "Molecular Formula": "C25H30O4", "Melting Point": "129-130 \u00b0C"}}