{"cas_no": "99624-92-7", "cn_name": "\u94a9\u5927\u9752\u916e", "en_name": ["(9S,11bS)-1,8,9,11b-Tetrahydro-7,11-dihydroxy-3,4,9,11b-tetramethylphenanthro[3,2-b]furan-6(2H)-one", "Phenanthro[3,2-b]furan-6(2H)-one, 1,8,9,11b-tetrahydro-7,11-dihydroxy-3,4,9,11b-tetramethyl-, (9S,11bS)-", "(9S,11bS)-1,8,9,11b-Tetrahydro-7,11-dihydroxy-3,4,9,11b-tetramethylphenanthro[3,2-b]furan-6(2H)-one", "Uncinatone", "2-Deoxycaryopincaolide F"], "SMILES": "CC12C=3C(=C(O)C4=C(C3O)OC(C)C4)C(=O)C=C1C(C)=C(C)CC2", "physical_data": {"Molecular Weight": "326.39", "Molecular Formula": "C20H22O4", "Melting Point": "193.2 \u00b0C"}}