{"cas_no": "99627-05-1", "cn_name": "3,4,5-\u4e09\u6c1f\u82ef\u915a", "en_name": ["3,4,5-Trifluorophenol", "Phenol, 3,4,5-trifluoro-", "3,4,5-Trifluorophenol"], "SMILES": "FC1=C(F)C=C(O)C=C1F", "physical_data": {"Molecular Weight": "148.08", "Molecular Formula": "C6H3F3O", "Melting Point": "50-52 \u00b0C"}}