{"cas_no": "99665-00-6", "cn_name": "\u6c1f\u6c27\u5934\u5b62", "en_name": ["Flomoxef", "5-Oxa-1-azabicyclo[4.2.0]oct-2-ene-2-carboxylic acid, 7-[[2-[(difluoromethyl)thio]acetyl]amino]-3-[[[1-(2-hydroxyethyl)-1H-tetrazol-5-yl]thio]methyl]-7-methoxy-8-oxo-, (6R,7R)-", "5-Oxa-1-azabicyclo[4.2.0]oct-2-ene-2-carboxylic acid, 7-[[[(difluoromethyl)thio]acetyl]amino]-3-[[[1-(2-hydroxyethyl)-1H-tetrazol-5-yl]thio]methyl]-7-methoxy-8-oxo-, (6R-cis)-", "5-Oxa-1-azabicyclo[4.2.0]oct-2-ene-2-carboxylic acid, 7-[[[(difluoromethyl)thio]acetyl]amino]-3-[[[1-(2-hydroxyethyl)-1H-tetrazol-5-yl]thio]methyl]-7-methoxy-8-oxo-, (6R,7R)-", "(6R,7R)-7-[[2-[(Difluoromethyl)thio]acetyl]amino]-3-[[[1-(2-hydroxyethyl)-1H-tetrazol-5-yl]thio]methyl]-7-methoxy-8-oxo-5-oxa-1-azabicyclo[4.2.0]oct-2-ene-2-carboxylic acid", "Flomoxef", "FMOX"], "SMILES": "N(C(CSC(F)F)=O)C1(OC)C2N(C1=O)C(C(O)=O)=C(CSC=3N(CCO)N=NN3)CO2", "physical_data": {"Molecular Weight": "496.47", "Molecular Formula": "C15H18F2N6O7S2", "Melting Point": "82.5-87.5 \u00b0C"}}