{"cas_no": "997-95-5", "cn_name": "N-\u4e9a\u785d\u57fa\u4e8c\u5f02\u4e01\u80fa", "en_name": ["N-Nitrosodiisobutylamine", "1-Propanamine, 2-methyl-N-(2-methylpropyl)-N-nitroso-", "Dipropylamine, 2,2\u2032-dimethyl-N-nitroso-", "2-Methyl-N-(2-methylpropyl)-N-nitroso-1-propanamine", "N-Nitrosodiisobutylamine", "N,N-Diisobutylnitrosamine", "Diisobutylnitrosamine", "NSC 134", "Diisobutylnitrosoamine", "N-Nitroso-di-iso-butylamine"], "SMILES": "N(CC(C)C)(CC(C)C)N=O", "physical_data": {"Molecular Weight": "158.24", "Molecular Formula": "C8H18N2O", "Boiling Point": "68 \u00b0C @ Press: 1.6 Torr"}}