{"cas_no": "997-68-2", "cn_name": "L-\u9175\u6bcd\u6c28\u9178", "en_name": ["Saccharopine", "L-Glutamic acid, N-[(5S)-5-amino-5-carboxypentyl]-", "Saccharopine", "Glutamic acid, N-(5-amino-5-carboxypentyl)-, L-", "L-Glutamic acid, N-(5-amino-5-carboxypentyl)-, (S)-", "N-[(5S)-5-Amino-5-carboxypentyl]-L-glutamic acid", "L-Saccharopine", "Saccharopin"], "SMILES": "C(CCC(O)=O)(NCCCCC(C(O)=O)N)C(O)=O", "physical_data": {"Molecular Weight": "276.29", "Molecular Formula": "C11H20N2O6", "Melting Point": "257-259 \u00b0C (decomp)"}}