{"cas_no": "997-55-7", "cn_name": "N-\u4e59\u9170-L-\u5929\u95e8\u51ac\u6c28\u9178", "en_name": ["N-Acetyl-L-aspartic acid", "L-Aspartic acid, N-acetyl-", "Aspartic acid, N-acetyl-, L-", "N-Acetyl-L-aspartic acid", "N-Acetylaspartic acid", "Acetylaspartic acid", "Acetyl-L-aspartic acid", "N-Acetyl-S-aspartic acid", "L-N-Acetylaspartic acid", "(2S)-2-Acetamidobutanedioic acid", "(S)-2-Acetamidosuccinic acid"], "SMILES": "C(CC(O)=O)(NC(C)=O)C(O)=O", "physical_data": {"Molecular Weight": "175.14", "Molecular Formula": "C6H9NO5", "Melting Point": "150 \u00b0C"}}