{"cas_no": "99705-50-7", "cn_name": "3'-(\u4e09\u6c1f\u7532\u57fa)\u82ef\u4e59\u916e\u809f", "en_name": ["Ethanone, 1-[3-(trifluoromethyl)phenyl]-, oxime", "Ethanone, 1-[3-(trifluoromethyl)phenyl]-, oxime", "3\u2032-(Trifluoromethyl)acetophenone oxime", "m-(Trifluoromethyl)acetophenone oxime", "1-[3-(Trifluoromethyl)phenyl]ethanone oxime"], "SMILES": "C(=NO)(C)C1=CC(C(F)(F)F)=CC=C1", "physical_data": {"Molecular Weight": "203.16", "Molecular Formula": "C9H8F3NO", "Melting Point": "56-62 \u00b0C"}}