{"cas_no": "99725-13-0", "cn_name": "5-\u6eb4-2-\u6c1f\u82c4\u80fa\u76d0\u9178\u76d0", "en_name": ["5-Bromo-2-fluorobenzenemethanol", "Benzenemethanol, 5-bromo-2-fluoro-", "5-Bromo-2-fluorobenzenemethanol", "5-Bromo-2-fluorobenzyl alcohol", "(5-Bromo-2-fluorophenyl)methanol"], "SMILES": "C(O)C1=C(F)C=CC(Br)=C1", "physical_data": {"Molecular Weight": "205.02", "Molecular Formula": "C7H6BrFO", "Boiling Point": "82-87 \u00b0C @ Press: 0.4 Torr"}}