{"cas_no": "99725-12-9", "cn_name": "2-\u6c1f-5-\u6eb4\u82c4\u6eb4", "en_name": ["4-Bromo-2-(bromomethyl)-1-fluorobenzene", "Benzene, 4-bromo-2-(bromomethyl)-1-fluoro-", "4-Bromo-2-(bromomethyl)-1-fluorobenzene", "5-Bromo-2-fluorobenzyl bromide", "2-Fluoro-5-bromobenzyl bromide"], "SMILES": "C(Br)C1=C(F)C=CC(Br)=C1", "physical_data": {"Molecular Weight": "267.92", "Molecular Formula": "C7H5Br2F", "Boiling Point": "126-136 \u00b0C @ Press: 15 Torr"}}