{"cas_no": "99768-12-4", "cn_name": "4-\u7532\u6c27\u7fb0\u57fa\u82ef\u787c\u9178", "en_name": ["4-(Methoxycarbonyl)phenylboronic acid", "Benzoic acid, 4-borono-, 1-methyl ester", "Benzoic acid, p-borono-, methyl ester", "4-Carbomethoxybenzeneboronic acid", "4-Methoxycarbonylbenzeneboronic acid", "(4-Carbomethoxyphenyl)boronic acid", "p-(Methoxycarbonyl)boronic acid", "Methyl p-boronobenzoate", "p-(Methoxycarbonyl)phenylboronic acid", "4-(Methoxycarbonyl)phenylboronic acid", "Methyl 4-boronobenzoate", "Methyl 4-carboxyphenylboronic acid", "4-Dihydroxyborylbenzoic acid methyl ester", "4-Methoxycarbonylphenylboric acid"], "SMILES": "C(OC)(=O)C1=CC=C(B(O)O)C=C1", "physical_data": {"Molecular Weight": "179.97", "Molecular Formula": "C8H9BO4", "Melting Point": "230-233 \u00b0C"}}