{"cas_no": "99799-10-7", "cn_name": "3-\u7532\u6c27\u57fa\u73af\u5df1\u57fa\u7532\u9178", "en_name": ["3-Methoxycyclohexanecarboxylic acid", "Cyclohexanecarboxylic acid, 3-methoxy-", "3-Methoxycyclohexanecarboxylic acid", "3-Methoxycyclohexane-1-carboxylic acid"], "SMILES": "C(O)(=O)C1CC(OC)CCC1", "physical_data": {"Molecular Weight": "158.20", "Molecular Formula": "C8H14O3", "Boiling Point": "140-142 \u00b0C @ Press: 5 Torr"}}