{"cas_no": "998-30-1", "cn_name": "\u4e09\u4e59\u6c27\u57fa\u7845\u70f7", "en_name": ["Triethoxysilane", "Silane, triethoxy-", "Triethoxysilane", "TRIES", "NSC 124134", "SIT 8185", "KBE 03", "SIT 8185.0", "T 1040"], "SMILES": "[SiH](OCC)(OCC)OCC", "physical_data": {"Molecular Weight": "164.27", "Molecular Formula": "C6H16O3Si", "Boiling Point": "132.5 \u00b0C", "Melting Point": "-170 \u00b0C", "Density": "0.8745 g/cm\u00b3 @ Temp: 20 \u00b0C"}}