{"cas_no": "998-29-8", "cn_name": "\u4e09\u6b63\u4e19\u57fa\u7845\u70f7", "en_name": ["Tripropylsilane", "Silane, tripropyl-", "Tripropylsilane", "Tri-n-propylsilane", "NSC 96837"], "SMILES": "[SiH](CCC)(CCC)CCC", "physical_data": {"Molecular Weight": "158.36", "Molecular Formula": "C9H22Si", "Boiling Point": "172 \u00b0C", "Density": "0.758 g/cm\u00b3"}}