{"cas_no": "998-91-4", "cn_name": "3-\u4e59\u6c27\u57fa-2-\u4e01\u7094\u7fa7\u9178\u4e59\u916f", "en_name": ["2-Butenoic acid, 3-ethoxy-, ethyl ester", "2-Butenoic acid, 3-ethoxy-, ethyl ester", "Crotonic acid, 3-ethoxy-, ethyl ester", "Ethyl 3-ethoxycrotonate", "Ethyl 3-ethoxy-2-butenoate", "3-Ethoxycrotonic acid ethyl ester", "Ethyl \u03b2-ethoxycrotonate", "NSC 224119", "NSC 2321", "3-Ethoxy-2-butenoic acid ethyl ester"], "SMILES": "C(=CC(OCC)=O)(OCC)C", "physical_data": {"Molecular Weight": "158.20", "Molecular Formula": "C8H14O3", "Boiling Point": "60 \u00b0C @ Press: 10 Torr", "Melting Point": "31 \u00b0C", "Density": "0.9565 g/cm\u00b3 @ Temp: 49.1000390625 \u00b0C"}}