{"cas_no": "998-07-2", "cn_name": "1,2-\u5341\u56db\u9170\u57fa\u78f7\u8102\u9170\u4e59\u9187\u80fa", "en_name": ["(R)-Dimyristoylphosphatidylethanolamine", "Tetradecanoic acid, (1R)-1-[[[(2-aminoethoxy)hydroxyphosphinyl]oxy]methyl]-1,2-ethanediyl ester", "Myristin, 1,2-di-, 2-aminoethyl hydrogen phosphate, L-", "Tetradecanoic acid, 1-[[[(2-aminoethoxy)hydroxyphosphinyl]oxy]methyl]-1,2-ethanediyl ester, (R)-", "Phosphoric acid, mono(2-aminoethyl) ester, monoester with 1,2-dimyristin, L-", "Dimyristoyl-sn-glycerol-3-phosphorylethanolamine", "1,2-Dimyristoyl-L-3-phosphatidylethanolamine", "1,2-Dimyristoyl-sn-glycero-3-phosphorylethanolamine", "L-\u03b2,\u03b3-Dimyristoyl-\u03b1-phosphatidylethanolamine", "1,2-Dimyristoyl-sn-glycero-3-phosphoethanolamine", "L-\u03b1-Dimyristoylphosphatidylethanolamine", "\u03b2,\u03b3-Dimyristoyl-L-\u03b1-phosphatidylethanolamine", "Dimyristoyl-L-\u03b1-phosphatidylethanolamine", "(R)-Dimyristoylphosphatidylethanolamine", "1,2-Dimyristoyl-3-sn-phosphatidylethanolamine", "1,2-Dimyristoyl-sn-glycero-phosphoethanolamine", "1,2-Dimyristoyl-sn-glycero-3-phosphoethanolamine", "DMPE", "1,2-Dimyristoyl-sn-glycero-3-phosphatidylethanolamine", "1,2-Dimyristoylsn-glycero-3-phospholethanolamine", "1,2-Ditetradecanoyl-sn-glycero-3-phosphoethanolamine", "2-Azaniumylethyl [(2R)-2,3-di(tetradecanoyloxy)propyl] phosphate", "1,2-Dimyristoyl-sn-glycero-3-phosphoethanoiamine"], "SMILES": "C(OC(CCCCCCCCCCCCC)=O)(COC(CCCCCCCCCCCCC)=O)COP(OCCN)(=O)O", "physical_data": {"Molecular Weight": "635.85", "Molecular Formula": "C33H66NO8P", "Melting Point": "174-175 \u00b0C"}}