{"cas_no": "998-93-6", "cn_name": "4-\u6eb4\u5e9a\u70f7", "en_name": ["4-Bromoheptane", "Heptane, 4-bromo-", "4-Bromoheptane", "4-Heptyl bromide"], "SMILES": "C(CCC)(CCC)Br", "physical_data": {"Molecular Weight": "179.10", "Molecular Formula": "C7H15Br", "Boiling Point": "55 \u00b0C @ Press: 11 Torr", "Density": "1.1389 g/cm\u00b3 @ Temp: 20 \u00b0C"}}