{"cas_no": "998-40-3", "cn_name": "\u4e09\u4e01\u57fa\u81a6", "en_name": ["Tributylphosphine", "Phosphine, tributyl-", "Tributylphosphine", "Tri-n-butylphosphine", "NSC 91700", "TBP", "Hishicolin P 4", "Cytop 340"], "SMILES": "P(CCCC)(CCCC)CCCC", "physical_data": {"Molecular Weight": "202.32", "Molecular Formula": "C12H27P", "Boiling Point": "149.5 \u00b0C @ Press: 12 Torr", "Density": "0.8118 g/cm\u00b3 @ Temp: 20 \u00b0C"}}