{"cas_no": "99817-36-4", "cn_name": "2,4-\u4e8c\u6c2f-3-\u4e59\u57fa-6-\u785d\u57fa\u82ef\u915a", "en_name": ["2,4-Dichloro-3-ethyl-6-nitrophenol", "Phenol, 2,4-dichloro-3-ethyl-6-nitro-", "2,4-Dichloro-3-ethyl-6-nitrophenol", "2-Nitro-4,6-dichloro-5-ethylphenol", "5-Ethyl-4,6-dichloro-2-nitrophenol"], "SMILES": "N(=O)(=O)C1=C(O)C(Cl)=C(CC)C(Cl)=C1", "physical_data": {"Molecular Weight": "236.05", "Molecular Formula": "C8H7Cl2NO3", "Melting Point": "44-47 \u00b0C"}}