{"cas_no": "99880-64-5", "cn_name": "\u7518\u6cb9\u4e8c\u5c71\u5d5b\u9178\u916f", "en_name": ["Glyceryl dibehenate", "Docosanoic acid, diester with 1,2,3-propanetriol", "Glycerin dibehenate", "Glycerol didocosanoate", "Glyceryl dibehenate", "Glycerol dibehenate", "Glyceryl didocosanoate", "Compritol 888"], "SMILES": "", "physical_data": {"Molecular Weight": "", "Molecular Formula": "C47H92O5", "Melting Point": "70 \u00b0C"}}