{"cas_no": "999-97-3", "cn_name": "\u516d\u7532\u57fa\u4e8c\u7845\u6c2e\u70f7", "en_name": ["Hexamethyldisilazane", "Silanamine, 1,1,1-trimethyl-N-(trimethylsilyl)-", "Disilazane, 1,1,1,3,3,3-hexamethyl-", "1,1,1-Trimethyl-N-(trimethylsilyl)silanamine", "1,1,1,3,3,3-Hexamethyldisilazane", "Bis(trimethylsilyl)amine", "Hexamethyldisilazane", "OAP", "Di(trimethylsilyl)amine", "SZ 6079", "HMDS", "Hexamethyldisilylamine", "HMDS (silazane)", "TSL 8802", "LS 7150", "HMDS 3", "TSR 8802", "SE 31", "SE 31 (silazane)", "NSC 93895", "A 166", "A 166 (silazane)", "HMD 3", "Z 6079", "Dynasylan HMDS", "SIH 6110.1", "Dow Corning 4-2839", "SZ 31", "12058-1A", "Silazan HMN", "H 0089", "HMDZ", "HMDS 1", "[Dimethyl-(trimethylsilylamino)silyl]methane", "DN-L 69", "R 821S", "SIH 110.1", "Xiameter PMS 6079 Fluid", "Xiameter PMS 6079", "IOTA 011"], "SMILES": "N([Si](C)(C)C)[Si](C)(C)C", "physical_data": {"Molecular Weight": "161.39", "Molecular Formula": "C6H19NSi2", "Boiling Point": "125 \u00b0C", "Density": "0.7741 g/cm\u00b3 @ Temp: 25 \u00b0C"}}