{"cas_no": "999-72-4", "cn_name": "3,3'-\u4e8c\u786b\u4ee3\u4e8c\u4e19\u9170\u7532\u80fa", "en_name": ["3,3\u2032-Dithiobis[N-methylpropanamide]", "Propanamide, 3,3\u2032-dithiobis[N-methyl-", "Propionamide, 3,3\u2032-dithiobis[N-methyl-", "3,3\u2032-Dithiobis[N-methylpropanamide]", "N,N\u2032-Dimethyl-3,3\u2032-dithiodipropionamide"], "SMILES": "C(CCSSCCC(NC)=O)(NC)=O", "physical_data": {"Molecular Weight": "236.35", "Molecular Formula": "C8H16N2O2S2", "Melting Point": "111-112 \u00b0C"}}