{"cas_no": "999-64-4", "cn_name": "3-\u6eb4\u8f9b\u70f7", "en_name": ["3-Bromooctane", "Octane, 3-bromo-", "3-Bromooctane", "3-Octyl bromide"], "SMILES": "C(CCCCC)(CC)Br", "physical_data": {"Molecular Weight": "193.12", "Molecular Formula": "C8H17Br", "Boiling Point": "81.5 \u00b0C @ Press: 20 Torr"}}