{"cas_no": "999-82-6", "cn_name": "2-\u6eb4\u4e59\u70f7\u78f7\u9178", "en_name": ["P-(2-Bromoethyl)phosphonic acid", "Phosphonic acid, P-(2-bromoethyl)-", "Phosphonic acid, (2-bromoethyl)-", "P-(2-Bromoethyl)phosphonic acid", "(2-Bromoethyl)phosphonic acid", "2-Bromoethanephosphonic acid"], "SMILES": "C(P(=O)(O)O)CBr", "physical_data": {"Molecular Weight": "188.95", "Molecular Formula": "C2H6BrO3P", "Melting Point": "86-87 \u00b0C"}}