{"cas_no": "999-40-6", "cn_name": "(2Z)-3,7-\u4e8c\u7532\u57fa-2,6-\u8f9b\u4e8c\u70ef-1-\u57fa\u4e01\u9178\u916f", "en_name": ["Neryl butyrate", "Butanoic acid, (2Z)-3,7-dimethyl-2,6-octadien-1-yl ester", "Butyric acid, 3,7-dimethyl-2,6-octadienyl ester, (Z)-", "Butanoic acid, 3,7-dimethyl-2,6-octadienyl ester, (Z)-", "Butanoic acid, (2Z)-3,7-dimethyl-2,6-octadienyl ester", "2,6-Octadien-1-ol, 3,7-dimethyl-, butyrate, (Z)-", "Neryl butyrate", "Neryl butanoate", "Neryl n-butyrate", "Nerol butyrate"], "SMILES": "C(=CCOC(CCC)=O)(CCC=C(C)C)C", "physical_data": {"Molecular Weight": "224.34", "Molecular Formula": "C14H24O2", "Boiling Point": "89-92 \u00b0C @ Press: 0.8 Torr", "Density": "0.8986 g/cm\u00b3 @ Temp: 15 \u00b0C"}}