{"cas_no": "999-21-3", "cn_name": "\u9a6c\u6765\u9178\u4e8c\u70ef\u4e19\u916f", "en_name": ["Diallyl maleate", "2-Butenedioic acid (2Z)-, 1,4-di-2-propen-1-yl ester", "Maleic acid, diallyl ester", "2-Butenedioic acid (Z)-, di-2-propenyl ester", "2-Butenedioic acid (2Z)-, di-2-propenyl ester", "Diallyl maleate"], "SMILES": "C(C=CC(OCC=C)=O)(OCC=C)=O", "physical_data": {"Molecular Weight": "196.20", "Molecular Formula": "C10H12O4", "Boiling Point": "108-110 \u00b0C", "Density": "1.0773 g/cm\u00b3 @ Temp: 20 \u00b0C"}}