{"cas_no": "999-81-5", "cn_name": "\u77ee\u58ee\u7d20", "en_name": ["Chlormequat chloride", "Ethanaminium, 2-chloro-N,N,N-trimethyl-, chloride (1:1)", "(2-Chloroethyl)trimethylammonium chloride", "Ammonium, (2-chloroethyl)trimethyl-, chloride", "Ethanaminium, 2-chloro-N,N,N-trimethyl-, chloride", "Chlorocholine chloride", "Cycocel", "Trimethyl-\u03b2-chloroethylammonium chloride", "CCC", "Chlorcholine chloride", "Chlormequat chloride", "TUR", "(\u03b2-Chloroethyl)trimethylammonium chloride", "Stabilan", "60CS16", "Retacel", "Antywylegacz", "WR 62", "Zar", "Lihocin", "Halloween", "Microcil", "Barleyquat B", "New \u20325c' Cycocel", "Cycocel Extra", "New 5C Cycocel", "Bercema CCC", "Cycogan", "Cysocel", "Antywylegacz Plynny", "Tuval", "Antywylegacz plynny 675SL", "C5 SUN", "(2-Chloroethyl)trimethylazanium chloride", "2-Chloro-N,N,N-trimethylethanaminium chloride"], "SMILES": "C([N+](C)(C)C)CCl.[Cl-]", "physical_data": {"Molecular Weight": "", "Molecular Formula": "C5H13ClN.Cl", "Melting Point": "245 \u00b0C (decomp)"}}