{"cas_no": "999-61-1", "cn_name": "2-\u4e19\u70ef\u9178-2-\u7f9f\u57fa\u4e19\u57fa\u916f", "en_name": ["2-Hydroxypropyl acrylate", "2-Propenoic acid, 2-hydroxypropyl ester", "Acrylic acid, 2-hydroxypropyl ester", "1,2-Propanediol, 1-acrylate", "2-Hydroxypropyl acrylate", "\u03b2-Hydroxypropyl acrylate", "Light Ester HOP-A", "Kayarad HPA", "HPA", "Bisomer HPA", "2HPA", "HOP-A", "2-Hydroxy-2-methylethyl acrylate", "Light Ester HOP-A(N)", "Light Acrylate HO-P", "2-Hydroxypropyl pro-2-enoate"], "SMILES": "C(OCC(C)O)(C=C)=O", "physical_data": {"Molecular Weight": "130.14", "Molecular Formula": "C6H10O3", "Boiling Point": "225 \u00b0C", "Density": "1.06 g/cm\u00b3"}}