{"cas_no": "999-55-3", "cn_name": "\u4e19\u70ef\u9178\u70ef\u4e19\u916f", "en_name": ["Allyl acrylate", "2-Propenoic acid, 2-propen-1-yl ester", "Acrylic acid, allyl ester", "2-Propenoic acid, 2-propenyl ester", "Allyl alcohol, acrylate", "Allyl acrylate", "Allyl 2-propenoate", "NSC 20945"], "SMILES": "C(OCC=C)(C=C)=O", "physical_data": {"Molecular Weight": "112.13", "Molecular Formula": "C6H8O2", "Boiling Point": "122 \u00b0C @ Press: 760 Torr", "Density": "0.9441 g/cm\u00b3 @ Temp: 20 \u00b0C"}}