{"cas_no": "99979-77-8", "cn_name": "2-\u6c2f-4-\u6c28\u57fa-5-\u7532\u6c27\u57fa\u5627\u5576", "en_name": ["2-Chloro-5-methoxy-4-pyrimidinamine", "4-Pyrimidinamine, 2-chloro-5-methoxy-", "Pyrimidine, 4-amino-2-chloro-5-methoxy-", "2-Chloro-5-methoxy-4-pyrimidinamine", "2-Chloro-5-methoxypyrimidin-4-amine"], "SMILES": "O(C)C=1C(N)=NC(Cl)=NC1", "physical_data": {"Molecular Weight": "159.57", "Molecular Formula": "C5H6ClN3O", "Melting Point": "181-182 \u00b0C (decomp)"}}